 Q-Chem 5.1, Q-Chem, Inc., Pleasanton, CA (2018)
 Q-Chem 5.1.1 for Intel X86 EM64T Linux

User input:
--------------------------------------------------------------
$molecule
0 1
 H        -2.1400320233    0.0000000000    0.5090177858
 C        -1.2120583232    0.0000000000   -0.0442490642
 C        -1.2042956497    0.0000000000   -1.4361358281
 H        -2.1437187877    0.0000000000   -1.9716770234
 C         0.0000000000    0.0000000000   -2.1351330277
 H         0.0000000000    0.0000000000   -3.2159870334
 C         1.2042956497    0.0000000000   -1.4361358281
 H         2.1437187877    0.0000000000   -1.9716770234
 C         1.2120583232    0.0000000000   -0.0442490642
 H         2.1400320233    0.0000000000    0.5090177858
 C         0.0000000000    0.0000000000    0.6386615242
 Cl        0.0000000000    0.0000000000    2.3695929760
$end

$rem
   BASIS  = cc-pVTZ
   JOB_TYPE  =  SP
   METHOD  =  EOM-CCSD
   SCF_CONVERGENCE  =  8
   IP_STATES = [2,1,3,3]
   CC_MEMORY = 80000
! use SP code
  cc_single_prec=1
  eom_single_prec=1
  cc_sp_dm = 1
  cc_sp_t_conv = 4
  cc_sp_e_conv = 6
  cc_erase_dp_integrals = 1
$end

--------------------------------------------------------------

             Standard Nuclear Orientation (Angstroms)
    I     Atom           X                Y                Z
 ----------------------------------------------------------------
    1      H      -2.1400320233     0.0000000000     0.3814604176
    2      C      -1.2120583232     0.0000000000    -0.1718064324
    3      C      -1.2042956497     0.0000000000    -1.5636931963
    4      H      -2.1437187877     0.0000000000    -2.0992343916
    5      C      -0.0000000000     0.0000000000    -2.2626903959
    6      H      -0.0000000000     0.0000000000    -3.3435444016
    7      C       1.2042956497     0.0000000000    -1.5636931963
    8      H       2.1437187877     0.0000000000    -2.0992343916
    9      C       1.2120583232    -0.0000000000    -0.1718064324
   10      H       2.1400320233    -0.0000000000     0.3814604176
   11      C       0.0000000000    -0.0000000000     0.5111041560
   12      Cl      0.0000000000    -0.0000000000     2.2420356078
 ----------------------------------------------------------------

   14    -689.7148636193      4.32e-09  Convergence criterion met
 Total energy in the final basis set =     -689.7148636193
 CCSD total energy           = -690.87873240
        Solving for EOMIP-CCSD A1 transitions.
 EOMIP transition 1/A1
 Total energy = -690.41337587 a.u.  Excitation energy = 12.6630 eV.
 EOMIP transition 2/A1
 Total energy = -690.34005261 a.u.  Excitation energy = 14.6582 eV.
        Solving for EOMIP-CCSD A2 transitions.
 EOMIP transition 1/A2
 Total energy = -690.52415638 a.u.  Excitation energy = 9.6485 eV.
        Solving for EOMIP-CCSD B1 transitions.
 EOMIP transition 1/B1
 Total energy = -690.45967552 a.u.  Excitation energy = 11.4031 eV.
 EOMIP transition 2/B1
 Total energy = -690.41147272 a.u.  Excitation energy = 12.7148 eV.
 EOMIP transition 3/B1
 Total energy = -690.33477872 a.u.  Excitation energy = 14.8017 eV.
        Solving for EOMIP-CCSD B2 transitions.
 EOMIP transition 1/B2
 Total energy = -690.54344044 a.u.  Excitation energy = 9.1238 eV.
 EOMIP transition 2/B2
 Total energy = -690.43899780 a.u.  Excitation energy = 11.9658 eV.
 EOMIP transition 3/B2
 Total energy = -690.37904200 a.u.  Excitation energy = 13.5973 eV.

             Orbital Energies (a.u.) and Symmetries
 --------------------------------------------------------------

 Alpha MOs, Restricted
 -- Occupied --
-104.84  -11.30  -11.25  -11.25  -11.25  -11.25  -11.24  -10.56
  1 A1    2 A1    3 A1    1 B1    4 A1    2 B1    5 A1    6 A1
 -8.030  -8.028  -8.028  -1.191  -1.120  -1.032  -0.996  -0.846
  7 A1    3 B1    1 B2    8 A1    9 A1    4 B1   10 A1    5 B1
 -0.820  -0.712  -0.648  -0.647  -0.603  -0.589  -0.545  -0.517
 11 A1   12 A1   13 A1    6 B1    7 B1   14 A1    2 B2    8 B1
 -0.511  -0.470  -0.454  -0.352  -0.335
 15 A1    3 B2    9 B1    1 A2    4 B2

 Beta MOs, Restricted
 -- Occupied --
-104.84  -11.30  -11.25  -11.25  -11.25  -11.25  -11.24  -10.56
  1 A1    2 A1    3 A1    1 B1    4 A1    2 B1    5 A1    6 A1
 -8.030  -8.028  -8.028  -1.191  -1.120  -1.032  -0.996  -0.846
  7 A1    3 B1    1 B2    8 A1    9 A1    4 B1   10 A1    5 B1
 -0.820  -0.712  -0.648  -0.647  -0.603  -0.589  -0.545  -0.517
 11 A1   12 A1   13 A1    6 B1    7 B1   14 A1    2 B2    8 B1
 -0.511  -0.470  -0.454  -0.352  -0.335
 15 A1    3 B2    9 B1    1 A2    4 B2

          Ground-State Mulliken Net Atomic Charges

     Atom                 Charge (a.u.)
  ----------------------------------------
      1 H                     0.170225
      2 C                    -0.180847
      3 C                    -0.122600
      4 H                     0.158568
      5 C                    -0.168489
      6 H                     0.157736
      7 C                    -0.122600
      8 H                     0.158568
      9 C                    -0.180847
     10 H                     0.170225
     11 C                     0.115551
     12 Cl                   -0.155489
  ----------------------------------------
  Sum of atomic charges =    -0.000000

                    Cartesian Multipole Moments
 -----------------------------------------------------------------
    Charge (ESU x 10^10)
                -0.0000
    Dipole Moment (Debye)
         X      -0.0000      Y       0.0000      Z      -1.9212
       Tot       1.9212
    Quadrupole Moments (Debye-Ang)
        XX     -42.2560     XY       0.0000     YY     -52.0023
        XZ       0.0000     YZ       0.0000     ZZ     -46.3457

 Total job time:  347.68s(wall), 2175.98s(cpu)
        *  Thank you very much for using Q-Chem.  Have a nice day.  *
