 Q-Chem 5.1, Q-Chem, Inc., Pleasanton, CA (2018)
 Q-Chem 5.1.1 for Intel X86 EM64T Linux

User input:
--------------------------------------------------------------
$molecule
0 1
 H        -2.1400320233    0.0000000000    0.5090177858
 C        -1.2120583232    0.0000000000   -0.0442490642
 C        -1.2042956497    0.0000000000   -1.4361358281
 H        -2.1437187877    0.0000000000   -1.9716770234
 C         0.0000000000    0.0000000000   -2.1351330277
 H         0.0000000000    0.0000000000   -3.2159870334
 C         1.2042956497    0.0000000000   -1.4361358281
 H         2.1437187877    0.0000000000   -1.9716770234
 C         1.2120583232    0.0000000000   -0.0442490642
 H         2.1400320233    0.0000000000    0.5090177858
 C         0.0000000000    0.0000000000    0.6386615242
 Cl        0.0000000000    0.0000000000    2.3695929760
$end

$rem
   BASIS  = cc-pVTZ
   JOB_TYPE  =  OPT
   METHOD  =  EOM-CCSD
   SCF_CONVERGENCE  =  8
   IP_STATES = [0,0,0,1]
   CC_STATE_TO_OPT = [4,1]
   CC_MEMORY = 80000
! use SP code
  cc_single_prec=1
  eom_single_prec=1
  cc_sp_dm = 1
  cc_sp_t_conv = 4
  cc_sp_e_conv = 6
  cc_erase_dp_integrals = 1
$end

--------------------------------------------------------------

   13    -689.7148636192      9.28e-09  Convergence criterion met
 Total energy in the final basis set =     -689.7148636192
 CCSD total energy           = -690.87873192
        Solving for EOMIP-CCSD B2 transitions.
 EOMIP transition 1/B2
 Total energy = -690.54344042 a.u.  Excitation energy = 9.1237 eV.
   11    -689.7073002757      5.41e-09  Convergence criterion met
 Total energy in the final basis set =     -689.7073002757
 CCSD total energy           = -690.87270700
        Solving for EOMIP-CCSD B2 transitions.
 EOMIP transition 1/B2
 Total energy = -690.54887093 a.u.  Excitation energy = 8.8120 eV.
   10    -689.7067376510      4.68e-09  Convergence criterion met
 Total energy in the final basis set =     -689.7067376510
 CCSD total energy           = -690.87227728
        Solving for EOMIP-CCSD B2 transitions.
 EOMIP transition 1/B2
 Total energy = -690.54916867 a.u.  Excitation energy = 8.7922 eV.

             Standard Nuclear Orientation (Angstroms)
    I     Atom           X                Y                Z
 ----------------------------------------------------------------
    1      H      -2.1651573376     0.0000000000     0.3879499861
    2      C      -1.2470507240     0.0000000000    -0.1801247700
    3      C      -1.2361338652     0.0000000000    -1.5492083889
    4      H      -2.1609781249     0.0000000000    -2.1059158595
    5      C       0.0000000000     0.0000000000    -2.2400161949
    6      H       0.0000000000     0.0000000000    -3.3212297746
    7      C       1.2361338652     0.0000000000    -1.5492083889
    8      H       2.1609781249     0.0000000000    -2.1059158595
    9      C       1.2470507240     0.0000000000    -0.1801247700
   10      H       2.1651573376     0.0000000000     0.3879499861
   11      C       0.0000000000     0.0000000000     0.5119321622
   12      Cl      0.0000000000     0.0000000000     2.1842696329
 ----------------------------------------------------------------

    9    -689.7067134625      3.25e-09  Convergence criterion met
 Total energy in the final basis set =     -689.7067134625
 CCSD total energy           = -690.87222567
        Solving for EOMIP-CCSD B2 transitions.
 EOMIP transition 1/B2
 Total energy = -690.54918278 a.u.  Excitation energy = 8.7904 eV.
 Final energy is   -690.54918277787306
 **  OPTIMIZATION CONVERGED  **

             Orbital Energies (a.u.) and Symmetries
 --------------------------------------------------------------

 Alpha MOs, Unrestricted
 -- Occupied --
-104.84  -11.30  -11.25  -11.25  -11.25  -10.57   -8.03  -11.25
  1 A1    2 A1    3 A1    4 A1    5 A1    6 A1    7 A1    1 B1
-11.247  -8.030  -8.030  -1.196  -1.123  -0.980  -0.820  -0.708
  2 B1    3 B1    1 B2    8 A1    9 A1   10 A1   11 A1   12 A1
 -0.653  -0.583  -0.518  -0.358  -1.037  -0.838  -0.644  -0.610
 13 A1   14 A1   15 A1    1 A2    4 B1    5 B1    6 B1    7 B1
 -0.514  -0.452  -0.546  -0.469  -0.320
  8 B1    9 B1    2 B2    3 B2    4 B2

 Beta MOs, Unrestricted
 -- Occupied --
-104.84  -11.30  -11.25  -11.25  -11.25  -10.57   -8.03  -11.25
  1 A1    2 A1    3 A1    4 A1    5 A1    6 A1    7 A1    1 B1
-11.247  -8.030  -8.030  -1.196  -1.123  -0.980  -0.820  -0.708
  2 B1    3 B1    1 B2    8 A1    9 A1   10 A1   11 A1   12 A1
 -0.653  -0.583  -0.518  -0.358  -1.037  -0.838  -0.644  -0.610
 13 A1   14 A1   15 A1    1 A2    4 B1    5 B1    6 B1    7 B1
 -0.514  -0.452  -0.546  -0.469  -0.320
  8 B1    9 B1    2 B2    3 B2    4 B2

          Ground-State Mulliken Net Atomic Charges

     Atom                 Charge (a.u.)    Spin (a.u.)
  --------------------------------------------------------
      1 H                     0.222390       0.000476
      2 C                    -0.079628      -0.028319
      3 C                    -0.092297      -0.020268
      4 H                     0.219392       0.002719
      5 C                    -0.024056      -0.365699
      6 H                     0.223756       0.014842
      7 C                    -0.092297      -0.020268
      8 H                     0.219392       0.002719
      9 C                    -0.079628      -0.028319
     10 H                     0.222390       0.000476
     11 C                     0.082309      -0.362294
     12 Cl                    0.178274      -0.196065
  --------------------------------------------------------
  Sum of atomic charges =     1.000000

                    Cartesian Multipole Moments
 -----------------------------------------------------------------
    Charge (ESU x 10^10)
                 4.8032
    Dipole Moment (Debye)
         X       0.0000      Y      -0.0000      Z      -2.8249
       Tot       2.8249
    Quadrupole Moments (Debye-Ang)
        XX     -32.9843     XY      -0.0000     YY     -46.8115
        XZ      -0.0000     YZ       0.0000     ZZ     -24.2726

 Total job time:  80566.47s(wall), 533172.79s(cpu)
        *  Thank you very much for using Q-Chem.  Have a nice day.  *
