 Q-Chem 5.1, Q-Chem, Inc., Pleasanton, CA (2018)
 Q-Chem 5.1.1 for Intel X86 EM64T Linux

User input:
--------------------------------------------------------------
$molecule
0 1
  H    0.0000000    2.1527918    0.4822092
  C    0.0000000    1.2047582   -0.0651382
  C    0.0000000    1.2047582   -1.4562732
  H    0.0000000    2.1527918   -2.0036206
  C    0.0000000   -0.0000000   -2.1518406
  H    0.0000000   -0.0000000   -3.2465355
  C    0.0000000   -1.2047582   -1.4562732
  H   -0.0000000   -2.1527918   -2.0036206
  C   -0.0000000   -1.2047582   -0.0651382
  H   -0.0000000   -2.1527918    0.4822092
  C   -0.0000000    0.0000000    0.6304292
 Cl   -0.0000000    0.0000000    1.7251241
$end

$rem
   AUXILIARY_BASIS  =  RIMP2-cc-PVTZ
   BASIS  =  cc-pcVTZ
   GUI  =  2
   JOB_TYPE  =  Optimization
   METHOD  =  RI-MP2
   SCF_CONVERGENCE  =  8
   n_frozen_core = FC
$end

--------------------------------------------------------------

   13    -689.0271579400      8.80e-09  Convergence criterion met
 Total energy in the final basis set =     -689.0271579400
        RIMP2         total energy =      -690.1943227802 a.u.
   13    -689.3489997596      4.20e-09  Convergence criterion met
 Total energy in the final basis set =     -689.3489997596
        RIMP2         total energy =      -690.5080068780 a.u.
   13    -689.5256036609      2.43e-09  Convergence criterion met
 Total energy in the final basis set =     -689.5256036609
        RIMP2         total energy =      -690.6776025380 a.u.
   12    -689.6120007750      5.70e-09  Convergence criterion met
 Total energy in the final basis set =     -689.6120007750
        RIMP2         total energy =      -690.7609153970 a.u.
   12    -689.6679821668      4.36e-09  Convergence criterion met
 Total energy in the final basis set =     -689.6679821668
        RIMP2         total energy =      -690.8138171181 a.u.
 Total energy in the final basis set =     -689.7168171348
        RIMP2         total energy =      -690.8593598927 a.u.
   10    -689.7172783132      8.82e-09  Convergence criterion met
 Total energy in the final basis set =     -689.7172783132
        RIMP2         total energy =      -690.8597032271 a.u.
    9    -689.7173565809      6.78e-09  Convergence criterion met
 Total energy in the final basis set =     -689.7173565809
        RIMP2         total energy =      -690.8597304816 a.u.
    8    -689.7173814204      6.71e-09  Convergence criterion met
 Total energy in the final basis set =     -689.7173814204
        RIMP2         total energy =      -690.8597337854 a.u.

             Standard Nuclear Orientation (Angstroms)
    I     Atom           X                Y                Z
 ----------------------------------------------------------------
    1      H      -2.1400320233     0.0000000000     0.5090177858
    2      C      -1.2120583232     0.0000000000    -0.0442490642
    3      C      -1.2042956497     0.0000000000    -1.4361358281
    4      H      -2.1437187877     0.0000000000    -1.9716770234
    5      C       0.0000000000     0.0000000000    -2.1351330277
    6      H       0.0000000000     0.0000000000    -3.2159870334
    7      C       1.2042956497     0.0000000000    -1.4361358281
    8      H       2.1437187877     0.0000000000    -1.9716770234
    9      C       1.2120583232     0.0000000000    -0.0442490642
   10      H       2.1400320233     0.0000000000     0.5090177858
   11      C       0.0000000000     0.0000000000     0.6386615242
   12      Cl      0.0000000000     0.0000000000     2.3695929760
 ----------------------------------------------------------------

    7    -689.7173874640      8.73e-09  Convergence criterion met
 Total energy in the final basis set =     -689.7173874640
        RIMP2         total energy =      -690.8597341792 a.u.
 Final energy is   -690.85973417921377
 **  OPTIMIZATION CONVERGED  **

             Orbital Energies (a.u.) and Symmetries
 --------------------------------------------------------------

 Alpha MOs, Restricted
 -- Occupied --
-104.84  -11.30  -11.25  -11.25  -11.25  -11.25  -11.24  -10.56
  1 A1    2 A1    3 A1    1 B1    4 A1    2 B1    5 A1    6 A1
 -8.030  -8.028  -8.028  -1.191  -1.120  -1.032  -0.996  -0.846
  7 A1    3 B1    1 B2    8 A1    9 A1    4 B1   10 A1    5 B1
 -0.820  -0.712  -0.648  -0.647  -0.603  -0.590  -0.545  -0.516
 11 A1   12 A1   13 A1    6 B1    7 B1   14 A1    2 B2    8 B1
 -0.512  -0.469  -0.454  -0.352  -0.335
 15 A1    3 B2    9 B1    1 A2    4 B2

 Beta MOs, Restricted
 -- Occupied --
-104.84  -11.30  -11.25  -11.25  -11.25  -11.25  -11.24  -10.56
  1 A1    2 A1    3 A1    1 B1    4 A1    2 B1    5 A1    6 A1
 -8.030  -8.028  -8.028  -1.191  -1.120  -1.032  -0.996  -0.846
  7 A1    3 B1    1 B2    8 A1    9 A1    4 B1   10 A1    5 B1
 -0.820  -0.712  -0.648  -0.647  -0.603  -0.590  -0.545  -0.516
 11 A1   12 A1   13 A1    6 B1    7 B1   14 A1    2 B2    8 B1
 -0.512  -0.469  -0.454  -0.352  -0.335
 15 A1    3 B2    9 B1    1 A2    4 B2

          Ground-State Mulliken Net Atomic Charges

     Atom                 Charge (a.u.)
  ----------------------------------------
      1 H                     0.124118
      2 C                    -0.103954
      3 C                    -0.106583
      4 H                     0.120714
      5 C                    -0.114334
      6 H                     0.119435
      7 C                    -0.106583
      8 H                     0.120714
      9 C                    -0.103954
     10 H                     0.124118
     11 C                     0.040377
     12 Cl                   -0.114068
  ----------------------------------------
  Sum of atomic charges =     0.000000

                    Cartesian Multipole Moments
 -----------------------------------------------------------------
    Charge (ESU x 10^10)
                 0.0000
    Dipole Moment (Debye)
         X       0.0000      Y      -0.0000      Z      -1.6577
       Tot       1.6577
    Quadrupole Moments (Debye-Ang)
        XX     -42.7044     XY      -0.0000     YY     -51.4218
        XZ      -0.0000     YZ      -0.0000     ZZ     -46.4671

 Total job time:  19412.90s(wall), 77251.28s(cpu)
        *  Thank you very much for using Q-Chem.  Have a nice day.  *
