 Q-Chem 5.1, Q-Chem, Inc., Pleasanton, CA (2018)
 Q-Chem 5.1.0 for Mac (Intel) OS X

User input:
--------------------------------------------------------------
$comment
ClBz, ionized states at the optimized structure of the A2 cation, to figure out state ordering
$end

$molecule
0 1
H        -2.1375917741    0.0000000000    0.3786218635
C        -1.1918260625    0.0000000000   -0.1453848291
C        -1.1865968607    0.0000000000   -1.5897166878
H        -2.1393643245    0.0000000000   -2.1011554060
C         0.0000000000    0.0000000000   -2.3047495571
H         0.0000000000    0.0000000000   -3.3832045096
C         1.1865968607    0.0000000000   -1.5897166878
H         2.1393643245    0.0000000000   -2.1011554060
C         1.1918260625    0.0000000000   -0.1453848291
H         2.1375917741    0.0000000000    0.3786218635
C         0.0000000000    0.0000000000    0.5668420231
Cl        0.0000000000    0.0000000000    2.2767399233
$end

$rem
   BASIS  = cc-pVTZ
   JOB_TYPE  =  SP
   METHOD  =  EOM-CCSD
   IP_STATES = [0,1,0,1]  Only need B2 and A2 states
!   CC_MEMORY = 80000
! use SP code
!  cc_single_prec=1
!  eom_single_prec=1
!  cc_sp_dm = 1
!  cc_sp_t_conv = 4
!  cc_sp_e_conv = 6
!  cc_erase_dp_integrals = 1
$end

--------------------------------------------------------------

             Standard Nuclear Orientation (Angstroms)
    I     Atom           X                Y                Z
 ----------------------------------------------------------------
    1      H      -2.1375917741     0.0000000000     0.3678004205
    2      C      -1.1918260625     0.0000000000    -0.1562062721
    3      C      -1.1865968607     0.0000000000    -1.6005381308
    4      H      -2.1393643245     0.0000000000    -2.1119768490
    5      C      -0.0000000000     0.0000000000    -2.3155710001
    6      H      -0.0000000000     0.0000000000    -3.3940259526
    7      C       1.1865968607     0.0000000000    -1.6005381308
    8      H       2.1393643245     0.0000000000    -2.1119768490
    9      C       1.1918260625    -0.0000000000    -0.1562062721
   10      H       2.1375917741    -0.0000000000     0.3678004205
   11      C       0.0000000000    -0.0000000000     0.5560205801
   12      Cl      0.0000000000    -0.0000000000     2.2659184803
 ----------------------------------------------------------------

   14    -689.7071646953      4.70e-09  Convergence criterion met
 CCSD total energy           = -690.87296943
        Solving for EOMIP-CCSD A2 transitions.
 EOMIP transition 1/A2
 Total energy = -690.52976661 a.u.  Excitation energy = 9.3390 eV.
        Solving for EOMIP-CCSD B2 transitions.
 EOMIP transition 1/B2
 Total energy = -690.53295421 a.u.  Excitation energy = 9.2523 eV.

             Orbital Energies (a.u.) and Symmetries
 --------------------------------------------------------------

 Alpha MOs, Restricted
 -- Occupied --
-104.84  -11.30  -11.25  -11.25  -11.25  -11.25  -11.24  -10.57
  1 A1    2 A1    3 A1    1 B1    4 A1    2 B1    5 A1    6 A1
 -8.035  -8.033  -8.033  -1.191  -1.120  -1.014  -1.003  -0.848
  7 A1    3 B1    1 B2    8 A1    9 A1    4 B1   10 A1    5 B1
 -0.813  -0.708  -0.652  -0.642  -0.601  -0.587  -0.544  -0.520
 11 A1   12 A1   13 A1    6 B1   14 A1    7 B1    2 B2    8 B1
 -0.510  -0.470  -0.456  -0.342  -0.337
 15 A1    3 B2    9 B1    4 B2    1 A2

 Beta MOs, Restricted
 -- Occupied --
-104.84  -11.30  -11.25  -11.25  -11.25  -11.25  -11.24  -10.57
  1 A1    2 A1    3 A1    1 B1    4 A1    2 B1    5 A1    6 A1
 -8.035  -8.033  -8.033  -1.191  -1.120  -1.014  -1.003  -0.848
  7 A1    3 B1    1 B2    8 A1    9 A1    4 B1   10 A1    5 B1
 -0.813  -0.708  -0.652  -0.642  -0.601  -0.587  -0.544  -0.520
 11 A1   12 A1   13 A1    6 B1   14 A1    7 B1    2 B2    8 B1
 -0.510  -0.470  -0.456  -0.342  -0.337
 15 A1    3 B2    9 B1    4 B2    1 A2

          Ground-State Mulliken Net Atomic Charges

     Atom                 Charge (a.u.)
  ----------------------------------------
      1 H                     0.168630
      2 C                    -0.183661
      3 C                    -0.133514
      4 H                     0.159644
      5 C                    -0.162926
      6 H                     0.165601
      7 C                    -0.133514
      8 H                     0.159644
      9 C                    -0.183661
     10 H                     0.168630
     11 C                     0.113540
     12 Cl                   -0.138412
  ----------------------------------------
  Sum of atomic charges =    -0.000000

                    Cartesian Multipole Moments
 -----------------------------------------------------------------
    Charge (ESU x 10^10)
                 0.0000
    Dipole Moment (Debye)
         X      -0.0000      Y       0.0000      Z      -1.8218
       Tot       1.8218
    Quadrupole Moments (Debye-Ang)
        XX     -42.6481     XY       0.0000     YY     -52.2048
        XZ       0.0000     YZ       0.0000     ZZ     -45.6425

 Total job time:  4222.69s(wall), 1567.60s(cpu)
        *  Thank you very much for using Q-Chem.  Have a nice day.  *
