 Q-Chem 5.1, Q-Chem, Inc., Pleasanton, CA (2018)
 Q-Chem 5.1.0 for Mac (Intel) OS X

User input:
--------------------------------------------------------------
$comment
RI-MP2/cc-pVTZ optimized geometry.
Open-shell calculation
$end

$molecule
+1 2
    H         2.4750347531    0.0000000000    0.0000000000
    C         1.3935929418    0.0000000000    0.0000000000
    C         0.6967964709    1.2068868901    0.0000000000
    H         1.2375173766    2.1434429715    0.0000000000
    C        -0.6967964709    1.2068868901    0.0000000000
    H        -1.2375173766    2.1434429715    0.0000000000
    C        -1.3935929418    0.0000000000    0.0000000000
    H        -2.4750347531    0.0000000000    0.0000000000
    C        -0.6967964709   -1.2068868901    0.0000000000
    H        -1.2375173766   -2.1434429715    0.0000000000
    C         0.6967964709   -1.2068868901    0.0000000000
    H         1.2375173766   -2.1434429715    0.0000000000
$end

$rem
   JOB_TYPE  =  SP
   BASIS  =  aug-cc-pVDZ
   METHOD  =  EOM-CCSD
   CVS_EE_STATES = [0,0,0,0,0,6,6,6]  Bright transitions only
!   CC_MEMORY = 80000
   cc_trans_prop = 1
$end
--------------------------------------------------------------

             Standard Nuclear Orientation (Angstroms)
    I     Atom           X                Y                Z
 ----------------------------------------------------------------
    1      H       2.4750347531     0.0000000000    -0.0000000000
    2      C       1.3935929418     0.0000000000    -0.0000000000
    3      C       0.6967964709     1.2068868901     0.0000000000
    4      H       1.2375173766     2.1434429715     0.0000000000
    5      C      -0.6967964709     1.2068868901     0.0000000000
    6      H      -1.2375173766     2.1434429715     0.0000000000
    7      C      -1.3935929418     0.0000000000     0.0000000000
    8      H      -2.4750347531     0.0000000000     0.0000000000
    9      C      -0.6967964709    -1.2068868901    -0.0000000000
   10      H      -1.2375173766    -2.1434429715    -0.0000000000
   11      C       0.6967964709    -1.2068868901    -0.0000000000
   12      H       1.2375173766    -2.1434429715    -0.0000000000
 ----------------------------------------------------------------

   14    -230.4354730328      4.51e-09  Convergence criterion met
 CCSD total energy           = -231.23566547
        Solving for CVS-EOMEE-CCSD B1u transitions.
 EOMEE transition 1/B1u
 Total energy = -220.81717478 a.u.  Excitation energy = 283.5015 eV.
 EOMEE transition 2/B1u
 Total energy = -220.79354534 a.u.  Excitation energy = 284.1445 eV.
 EOMEE transition 3/B1u
 Total energy = -220.66431564 a.u.  Excitation energy = 287.6611 eV.
 EOMEE transition 4/B1u
 Total energy = -220.62869495 a.u.  Excitation energy = 288.6303 eV.
 EOMEE transition 5/B1u
 Total energy = -220.61420570 a.u.  Excitation energy = 289.0246 eV.
 EOMEE transition 6/B1u
 Total energy = -220.60119895 a.u.  Excitation energy = 289.3786 eV.
        Solving for CVS-EOMEE-CCSD B2u transitions.
 EOMEE transition 1/B2u
 Total energy = -220.50869669 a.u.  Excitation energy = 291.8957 eV.
 EOMEE transition 2/B2u
 Total energy = -220.49529354 a.u.  Excitation energy = 292.2604 eV.
 EOMEE transition 3/B2u
 Total energy = -220.46160258 a.u.  Excitation energy = 293.1772 eV.
 EOMEE transition 4/B2u
 Total energy = -220.45709861 a.u.  Excitation energy = 293.2997 eV.
 EOMEE transition 5/B2u
 Total energy = -220.44185991 a.u.  Excitation energy = 293.7144 eV.
 EOMEE transition 6/B2u
 Total energy = -220.43987040 a.u.  Excitation energy = 293.7685 eV.
        Solving for CVS-EOMEE-CCSD B3u transitions.
 EOMEE transition 1/B3u
 Total energy = -220.50960861 a.u.  Excitation energy = 291.8709 eV.
 EOMEE transition 2/B3u
 Total energy = -220.49656815 a.u.  Excitation energy = 292.2257 eV.
 EOMEE transition 3/B3u
 Total energy = -220.47785358 a.u.  Excitation energy = 292.7349 eV.
 EOMEE transition 4/B3u
 Total energy = -220.46275876 a.u.  Excitation energy = 293.1457 eV.
 EOMEE transition 5/B3u
 Total energy = -220.45838235 a.u.  Excitation energy = 293.2648 eV.
 EOMEE transition 6/B3u
 Total energy = -220.45825137 a.u.  Excitation energy = 293.2684 eV.

             Orbital Energies (a.u.) and Symmetries
 --------------------------------------------------------------

 Alpha MOs, Unrestricted
 -- Occupied --
-11.505 -11.505 -11.468 -11.468 -11.467 -11.467  -1.402  -1.279
  1 B3u   1 Ag    1 B2u   2 Ag    1 B1g   2 B3u   3 Ag    3 B3u
 -1.241  -1.061  -1.060  -0.937  -0.866  -0.858  -0.824  -0.805
  2 B2u   4 Ag    2 B1g   5 Ag    4 B3u   3 B2u   5 B3u   4 B2u
 -0.755  -0.720  -0.720  -0.620  -0.547
  1 B1u   6 Ag    3 B1g   1 B2g   1 B3g

 Beta MOs, Unrestricted
 -- Occupied --
-11.494 -11.494 -11.469 -11.469 -11.468 -11.468  -1.377  -1.243
  1 B3u   1 Ag    1 B2u   2 Ag    1 B1g   2 B3u   3 Ag    2 B2u
 -1.229  -1.049  -1.044  -0.933  -0.859  -0.852  -0.816  -0.806
  3 B3u   2 B1g   4 Ag    5 Ag    4 B3u   3 B2u   5 B3u   4 B2u
 -0.719  -0.715  -0.667  -0.559
  6 Ag    3 B1g   1 B1u   1 B3g

          Ground-State Mulliken Net Atomic Charges

     Atom                 Charge (a.u.)    Spin (a.u.)
  --------------------------------------------------------
      1 H                    -0.349323      -0.031486
      2 C                     0.410451       0.713013
      3 C                     0.585497      -0.083835
      4 H                    -0.366061      -0.006928
      5 C                     0.585497      -0.083835
      6 H                    -0.366061      -0.006928
      7 C                     0.410451       0.713013
      8 H                    -0.349323      -0.031486
      9 C                     0.585497      -0.083835
     10 H                    -0.366061      -0.006928
     11 C                     0.585497      -0.083835
     12 H                    -0.366061      -0.006928
  --------------------------------------------------------
  Sum of atomic charges =     1.000000

                    Cartesian Multipole Moments
 -----------------------------------------------------------------
    Charge (ESU x 10^10)
                 4.8032
    Dipole Moment (Debye)
         X       0.0000      Y       0.0000      Z      -0.0000
       Tot       0.0000
    Quadrupole Moments (Debye-Ang)
        XX     -18.0979     XY       0.0000     YY     -22.1351
        XZ       0.0000     YZ      -0.0000     ZZ     -36.1922

 Total job time:  36806.67s(wall), 48342.28s(cpu)
        *  Thank you very much for using Q-Chem.  Have a nice day.  *
