 Q-Chem 5.1, Q-Chem, Inc., Pleasanton, CA (2018)
 Q-Chem 5.1.0 for Mac (Intel) OS X

User input:
--------------------------------------------------------------
$comment
RI-MP2/cc-pVTZ optimized geometry.
$end

$molecule
0 1
    H         2.4750347531    0.0000000000    0.0000000000
    C         1.3935929418    0.0000000000    0.0000000000
    C         0.6967964709    1.2068868901    0.0000000000
    H         1.2375173766    2.1434429715    0.0000000000
    C        -0.6967964709    1.2068868901    0.0000000000
    H        -1.2375173766    2.1434429715    0.0000000000
    C        -1.3935929418    0.0000000000    0.0000000000
    H        -2.4750347531    0.0000000000    0.0000000000
    C        -0.6967964709   -1.2068868901    0.0000000000
    H        -1.2375173766   -2.1434429715    0.0000000000
    C         0.6967964709   -1.2068868901    0.0000000000
    H         1.2375173766   -2.1434429715    0.0000000000
$end

$rem
   JOB_TYPE  =  SP
   BASIS  =  6-311(2+,+)G**
   METHOD  =  EOM-CCSD
   CVS_EE_STATES = [0,0,0,0,0,5,5,5]
!   CC_MEMORY = 80000
   cc_trans_prop = 1
   PRINT_GENERAL_BASIS = true
$end
--------------------------------------------------------------

             Standard Nuclear Orientation (Angstroms)
    I     Atom           X                Y                Z
 ----------------------------------------------------------------
    1      H       2.4750347531     0.0000000000    -0.0000000000
    2      C       1.3935929418     0.0000000000    -0.0000000000
    3      C       0.6967964709     1.2068868901     0.0000000000
    4      H       1.2375173766     2.1434429715     0.0000000000
    5      C      -0.6967964709     1.2068868901     0.0000000000
    6      H      -1.2375173766     2.1434429715     0.0000000000
    7      C      -1.3935929418     0.0000000000     0.0000000000
    8      H      -2.4750347531     0.0000000000     0.0000000000
    9      C      -0.6967964709    -1.2068868901    -0.0000000000
   10      H      -1.2375173766    -2.1434429715    -0.0000000000
   11      C       0.6967964709    -1.2068868901    -0.0000000000
   12      H       1.2375173766    -2.1434429715    -0.0000000000
 ----------------------------------------------------------------

   10    -230.7564457569      2.53e-09  Convergence criterion met
 CCSD total energy           = -231.61824166
 EOMEE transition 1/B1u
 Total energy = -221.09656586 a.u.  Excitation energy = 286.3094 eV.
 EOMEE transition 2/B1u
 Total energy = -221.09620147 a.u.  Excitation energy = 286.3193 eV.
 EOMEE transition 3/B1u
 Total energy = -221.03872050 a.u.  Excitation energy = 287.8834 eV.
 EOMEE transition 4/B1u
 Total energy = -220.98985875 a.u.  Excitation energy = 289.2130 eV.
 EOMEE transition 5/B1u
 Total energy = -220.98785777 a.u.  Excitation energy = 289.2675 eV.
 EOMEE transition 1/B2u
 Total energy = -221.02866726 a.u.  Excitation energy = 288.1570 eV.
 EOMEE transition 2/B2u
 Total energy = -220.99276658 a.u.  Excitation energy = 289.1339 eV.
 EOMEE transition 3/B2u
 Total energy = -220.99254446 a.u.  Excitation energy = 289.1399 eV.
 EOMEE transition 4/B2u
 Total energy = -220.99090955 a.u.  Excitation energy = 289.1844 eV.
 EOMEE transition 5/B2u
 Total energy = -220.97192319 a.u.  Excitation energy = 289.7011 eV.
 EOMEE transition 1/B3u
 Total energy = -221.03040272 a.u.  Excitation energy = 288.1097 eV.
 EOMEE transition 2/B3u
 Total energy = -221.02866658 a.u.  Excitation energy = 288.1570 eV.
 EOMEE transition 3/B3u
 Total energy = -220.99272878 a.u.  Excitation energy = 289.1349 eV.
 EOMEE transition 4/B3u
 Total energy = -220.99254116 a.u.  Excitation energy = 289.1400 eV.
 EOMEE transition 5/B3u
 Total energy = -220.99090534 a.u.  Excitation energy = 289.1845 eV.

             Orbital Energies (a.u.) and Symmetries
 --------------------------------------------------------------

 Alpha MOs, Restricted
 -- Occupied --
-11.238 -11.238 -11.238 -11.236 -11.236 -11.236  -1.153  -1.017
  1 Ag    1 B3u   1 B2u   2 Ag    1 B1g   2 B3u   3 Ag    3 B3u
 -1.017  -0.826  -0.826  -0.712  -0.645  -0.621  -0.590  -0.590
  2 B2u   4 Ag    2 B1g   5 Ag    4 B3u   3 B2u   5 B3u   4 B2u
 -0.502  -0.496  -0.496  -0.337  -0.337
  1 B1u   6 Ag    3 B1g   1 B2g   1 B3g

 Beta MOs, Restricted
 -- Occupied --
-11.238 -11.238 -11.238 -11.236 -11.236 -11.236  -1.153  -1.017
  1 Ag    1 B3u   1 B2u   2 Ag    1 B1g   2 B3u   3 Ag    3 B3u
 -1.017  -0.826  -0.826  -0.712  -0.645  -0.621  -0.590  -0.590
  2 B2u   4 Ag    2 B1g   5 Ag    4 B3u   3 B2u   5 B3u   4 B2u
 -0.502  -0.496  -0.496  -0.337  -0.337
  1 B1u   6 Ag    3 B1g   1 B2g   1 B3g

          Ground-State Mulliken Net Atomic Charges

     Atom                 Charge (a.u.)
  ----------------------------------------
      1 H                     0.198875
      2 C                    -0.198875
      3 C                    -0.198875
      4 H                     0.198875
      5 C                    -0.198875
      6 H                     0.198875
      7 C                    -0.198875
      8 H                     0.198875
      9 C                    -0.198875
     10 H                     0.198875
     11 C                    -0.198875
     12 H                     0.198875
  ----------------------------------------
  Sum of atomic charges =     0.000000

                    Cartesian Multipole Moments
 -----------------------------------------------------------------
    Charge (ESU x 10^10)
                 0.0000
    Dipole Moment (Debye)
         X       0.0000      Y      -0.0000      Z       0.0000
       Tot       0.0000
    Quadrupole Moments (Debye-Ang)
        XX     -31.9213     XY      -0.0000     YY     -31.9213
        XZ      -0.0000     YZ      -0.0000     ZZ     -41.3018

 Total job time:  12031.26s(wall), 11988.77s(cpu)
        *  Thank you very much for using Q-Chem.  Have a nice day.  *
