 Q-Chem 5.1, Q-Chem, Inc., Pleasanton, CA (2018)
 Q-Chem 5.1.0 for Intel X86 EM64T Linux

User input:
--------------------------------------------------------------
$comment
RI-MP2/cc-pVTZ optimized geometry.
$end

$molecule
0 1
    H         2.4750347531    0.0000000000    0.0000000000
    C         1.3935929418    0.0000000000    0.0000000000
    C         0.6967964709    1.2068868901    0.0000000000
    H         1.2375173766    2.1434429715    0.0000000000
    C        -0.6967964709    1.2068868901    0.0000000000
    H        -1.2375173766    2.1434429715    0.0000000000
    C        -1.3935929418    0.0000000000    0.0000000000
    H        -2.4750347531    0.0000000000    0.0000000000
    C        -0.6967964709   -1.2068868901    0.0000000000
    H        -1.2375173766   -2.1434429715    0.0000000000
    C         0.6967964709   -1.2068868901    0.0000000000
    H         1.2375173766   -2.1434429715    0.0000000000
$end

$rem
   JOB_TYPE  =  SP
   BASIS  =  6-311++G**
   METHOD  =  EOM-CCSD
   CVS_EE_STATES = [0,0,0,0,0,5,5,5]
!   CC_MEMORY = 80000
   cc_trans_prop = 1
   PRINT_GENERAL_BASIS = true
$end
--------------------------------------------------------------

   10    -230.7563731734      3.57e-09  Convergence criterion met

             Standard Nuclear Orientation (Angstroms)
    I     Atom           X                Y                Z
 ----------------------------------------------------------------
    1      H       2.4750347531     0.0000000000    -0.0000000000
    2      C       1.3935929418     0.0000000000    -0.0000000000
    3      C       0.6967964709     1.2068868901     0.0000000000
    4      H       1.2375173766     2.1434429715     0.0000000000
    5      C      -0.6967964709     1.2068868901     0.0000000000
    6      H      -1.2375173766     2.1434429715     0.0000000000
    7      C      -1.3935929418     0.0000000000     0.0000000000
    8      H      -2.4750347531     0.0000000000     0.0000000000
    9      C      -0.6967964709    -1.2068868901    -0.0000000000
   10      H      -1.2375173766    -2.1434429715    -0.0000000000
   11      C       0.6967964709    -1.2068868901    -0.0000000000
   12      H       1.2375173766    -2.1434429715    -0.0000000000
 ----------------------------------------------------------------

 CCSD total energy           = -231.61787928
 EOMEE transition 1/B1u
 Total energy = -221.09616214 a.u.  Excitation energy = 286.3105 eV.
 EOMEE transition 2/B1u
 Total energy = -221.09579545 a.u.  Excitation energy = 286.3205 eV.
 EOMEE transition 3/B1u
 Total energy = -221.03829199 a.u.  Excitation energy = 287.8852 eV.
 EOMEE transition 4/B1u
 Total energy = -220.96039619 a.u.  Excitation energy = 290.0049 eV.
 EOMEE transition 5/B1u
 Total energy = -220.95845229 a.u.  Excitation energy = 290.0578 eV.
 EOMEE transition 1/B2u
 Total energy = -221.02695402 a.u.  Excitation energy = 288.1937 eV.
 EOMEE transition 2/B2u
 Total energy = -220.98803361 a.u.  Excitation energy = 289.2528 eV.
 EOMEE transition 3/B2u
 Total energy = -220.98750822 a.u.  Excitation energy = 289.2671 eV.
 EOMEE transition 4/B2u
 Total energy = -220.98337713 a.u.  Excitation energy = 289.3795 eV.
 EOMEE transition 5/B2u
 Total energy = -220.96160012 a.u.  Excitation energy = 289.9721 eV.
 EOMEE transition 1/B3u
 Total energy = -221.02867566 a.u.  Excitation energy = 288.1469 eV.
 EOMEE transition 2/B3u
 Total energy = -221.02694990 a.u.  Excitation energy = 288.1938 eV.
 EOMEE transition 3/B3u
 Total energy = -220.98749924 a.u.  Excitation energy = 289.2674 eV.
 EOMEE transition 4/B3u
 Total energy = -220.98468925 a.u.  Excitation energy = 289.3438 eV.
 EOMEE transition 5/B3u
 Total energy = -220.98333389 a.u.  Excitation energy = 289.3807 eV.

             Orbital Energies (a.u.) and Symmetries
 --------------------------------------------------------------

 Alpha MOs, Restricted
 -- Occupied --
-11.238 -11.238 -11.238 -11.236 -11.236 -11.236  -1.153  -1.017
  1 Ag    1 B3u   1 B2u   2 Ag    1 B1g   2 B3u   3 Ag    3 B3u
 -1.017  -0.826  -0.826  -0.712  -0.645  -0.621  -0.590  -0.590
  2 B2u   4 Ag    2 B1g   5 Ag    4 B3u   3 B2u   5 B3u   4 B2u
 -0.502  -0.496  -0.496  -0.337  -0.337
  1 B1u   6 Ag    3 B1g   1 B2g   1 B3g

 Beta MOs, Restricted
 -- Occupied --
-11.238 -11.238 -11.238 -11.236 -11.236 -11.236  -1.153  -1.017
  1 Ag    1 B3u   1 B2u   2 Ag    1 B1g   2 B3u   3 Ag    3 B3u
 -1.017  -0.826  -0.826  -0.712  -0.645  -0.621  -0.590  -0.590
  2 B2u   4 Ag    2 B1g   5 Ag    4 B3u   3 B2u   5 B3u   4 B2u
 -0.502  -0.496  -0.496  -0.337  -0.337
  1 B1u   6 Ag    3 B1g   1 B2g   1 B3g

          Ground-State Mulliken Net Atomic Charges

     Atom                 Charge (a.u.)
  ----------------------------------------
      1 H                     0.192684
      2 C                    -0.192674
      3 C                    -0.192688
      4 H                     0.192683
      5 C                    -0.192688
      6 H                     0.192683
      7 C                    -0.192674
      8 H                     0.192684
      9 C                    -0.192688
Archival summary:
1\1\UX410U\SP\ProcedureUnspecified\BasisUnspecified\66\marta\ThuSep2719:40:532018ThuSep2719:40:532018\0\\#,ProcedureUnspecified,BasisUnspecified,\\0,1\C\H,1,1.08144\C,1,1.39359,2,120\H,3,1.08144,1,120,2,-0,0\C,3,1.39359,1,120,2,180,0\H,5,1.08144,3,120,1,180,0\C,5,1.39359,3,120,1,-0,0\H,7,1.08144,5,120,3,180,0\C,7,1.39359,5,120,3,0,0\H,9,1.08144,7,120,5,180,0\C,9,1.39359,7,120,5,-0,0\H,11,1.08144,9,120,7,-180,0\\HF=-230.756373\\@

 Total job time:  9532.47s(wall), 6925.09s(cpu)
 Thu Sep 27 19:40:53 2018

        *************************************************************
        *                                                           *
        *  Thank you very much for using Q-Chem.  Have a nice day.  *
        *                                                           *
        *************************************************************

     10 H                     0.192683
     11 C                    -0.192688
     12 H                     0.192683
  ----------------------------------------
  Sum of atomic charges =    -0.000000

                    Cartesian Multipole Moments
 -----------------------------------------------------------------
    Charge (ESU x 10^10)
                -0.0000
    Dipole Moment (Debye)
         X      -0.0000      Y       0.0000      Z       0.0000
       Tot       0.0000
    Quadrupole Moments (Debye-Ang)
        XX     -31.9164     XY      -0.0000     YY     -31.9164
        XZ       0.0000     YZ      -0.0000     ZZ     -41.3043
