 Q-Chem 5.1, Q-Chem, Inc., Pleasanton, CA (2018)
 Q-Chem 5.1.0 for Mac (Intel) OS X

User input:
--------------------------------------------------------------
$comment
Open-shell calculation at the relaxted geometry of the lowest state (B3g)
$end

$molecule
+1 2
 H         1.2392908131   -2.1390691708    0.0000000000
 C         0.7225974533   -1.1894682957    0.0000000000
 C        -0.7225974533   -1.1894682957    0.0000000000
 H        -1.2392908131   -2.1390691708    0.0000000000
 C        -1.4341864916    0.0000000000    0.0000000000
 H        -2.5128824541    0.0000000000    0.0000000000
 C        -0.7225974533    1.1894682957    0.0000000000
 H        -1.2392908131    2.1390691708    0.0000000000
 C         0.7225974533    1.1894682957    0.0000000000
 H         1.2392908131    2.1390691708    0.0000000000
 C         1.4341864916    0.0000000000    0.0000000000
 H         2.5128824541    0.0000000000    0.0000000000
$end

$rem
   JOB_TYPE  =  SP
   BASIS  =  aug-cc-pVDZ
   METHOD  =  EOM-CCSD
   CVS_EE_STATES = [0,0,0,0,0,6,6,6]  Bright transitions only
!   CC_MEMORY = 80000
   cc_trans_prop = 1
$end
--------------------------------------------------------------

             Standard Nuclear Orientation (Angstroms)
    I     Atom           X                Y                Z
 ----------------------------------------------------------------
    1      H      -1.2392908131    -2.1390691708    -0.0000000000
    2      C      -0.7225974533    -1.1894682957    -0.0000000000
    3      C       0.7225974533    -1.1894682957     0.0000000000
    4      H       1.2392908131    -2.1390691708     0.0000000000
    5      C       1.4341864916    -0.0000000000     0.0000000000
    6      H       2.5128824541    -0.0000000000     0.0000000000
    7      C       0.7225974533     1.1894682957     0.0000000000
    8      H       1.2392908131     2.1390691708     0.0000000000
    9      C      -0.7225974533     1.1894682957    -0.0000000000
   10      H      -1.2392908131     2.1390691708    -0.0000000000
   11      C      -1.4341864916     0.0000000000    -0.0000000000
   12      H      -2.5128824541     0.0000000000    -0.0000000000
 ----------------------------------------------------------------

   15    -230.4437939337      5.76e-09  Convergence criterion met
 CCSD total energy           = -231.24260214
        Solving for CVS-EOMEE-CCSD B1u transitions.
 EOMEE transition 1/B1u
 Total energy = -220.80407049 a.u.  Excitation energy = 284.0469 eV.
 EOMEE transition 2/B1u
 Total energy = -220.67688450 a.u.  Excitation energy = 287.5078 eV.
 EOMEE transition 3/B1u
 Total energy = -220.65405733 a.u.  Excitation energy = 288.1290 eV.
 EOMEE transition 4/B1u
 Total energy = -220.63156068 a.u.  Excitation energy = 288.7411 eV.
 EOMEE transition 5/B1u
 Total energy = -220.59281681 a.u.  Excitation energy = 289.7954 eV.
 EOMEE transition 6/B1u
 Total energy = -220.55837094 a.u.  Excitation energy = 290.7327 eV.
        Solving for CVS-EOMEE-CCSD B2u transitions.
 EOMEE transition 1/B2u
 Total energy = -220.49253406 a.u.  Excitation energy = 292.5242 eV.
 EOMEE transition 2/B2u
 Total energy = -220.47600104 a.u.  Excitation energy = 292.9741 eV.
 EOMEE transition 3/B2u
 Total energy = -220.46196080 a.u.  Excitation energy = 293.3562 eV.
 EOMEE transition 4/B2u
 Total energy = -220.45511982 a.u.  Excitation energy = 293.5423 eV.
 EOMEE transition 5/B2u
 Total energy = -220.44227004 a.u.  Excitation energy = 293.8920 eV.
 EOMEE transition 6/B2u
 Total energy = -220.43793524 a.u.  Excitation energy = 294.0099 eV.
        Solving for CVS-EOMEE-CCSD B3u transitions.
 EOMEE transition 1/B3u
 Total energy = -220.52530434 a.u.  Excitation energy = 291.6325 eV.
 EOMEE transition 2/B3u
 Total energy = -220.51152433 a.u.  Excitation energy = 292.0075 eV.
 EOMEE transition 3/B3u
 Total energy = -220.49307987 a.u.  Excitation energy = 292.5094 eV.
 EOMEE transition 4/B3u
 Total energy = -220.48017640 a.u.  Excitation energy = 292.8605 eV.
 EOMEE transition 5/B3u
 Total energy = -220.47682652 a.u.  Excitation energy = 292.9517 eV.
 EOMEE transition 6/B3u
 Total energy = -220.47185205 a.u.  Excitation energy = 293.0870 eV.

             Orbital Energies (a.u.) and Symmetries
 --------------------------------------------------------------

 Alpha MOs, Unrestricted
 -- Occupied --
-11.500 -11.500 -11.499 -11.499 -11.444 -11.444  -1.392  -1.262
  1 B2u   1 Ag    1 B3u   1 B1g   2 B3u   2 Ag    3 Ag    2 B2u
 -1.247  -1.066  -1.048  -0.933  -0.869  -0.852  -0.814  -0.811
  3 B3u   2 B1g   4 Ag    5 Ag    4 B3u   3 B2u   4 B2u   5 B3u
 -0.747  -0.725  -0.714  -0.607  -0.555
  1 B1u   3 B1g   6 Ag    1 B3g   1 B2g

 Beta MOs, Unrestricted
 -- Occupied --
-11.492 -11.492 -11.491 -11.491 -11.451 -11.451  -1.369  -1.250
  1 Ag    1 B2u   1 B3u   1 B1g   2 B3u   2 Ag    3 Ag    3 B3u
 -1.211  -1.045  -1.042  -0.929  -0.862  -0.845  -0.813  -0.804
  2 B2u   2 B1g   4 Ag    5 Ag    4 B3u   3 B2u   5 B3u   4 B2u
 -0.723  -0.710  -0.668  -0.574
  3 B1g   6 Ag    1 B1u   1 B2g

          Ground-State Mulliken Net Atomic Charges

     Atom                 Charge (a.u.)    Spin (a.u.)
  --------------------------------------------------------
      1 H                    -0.367051      -0.025836
      2 C                     0.495834       0.535750
      3 C                     0.495834       0.535750
      4 H                    -0.367051      -0.025836
      5 C                     0.592532      -0.527078
      6 H                    -0.350098       0.007251
      7 C                     0.495834       0.535750
      8 H                    -0.367051      -0.025836
      9 C                     0.495834       0.535750
     10 H                    -0.367051      -0.025836
     11 C                     0.592532      -0.527078
     12 H                    -0.350098       0.007251
  --------------------------------------------------------
  Sum of atomic charges =     1.000000

                    Cartesian Multipole Moments
 -----------------------------------------------------------------
    Charge (ESU x 10^10)
                 4.8032
    Dipole Moment (Debye)
         X      -0.0000      Y       0.0000      Z      -0.0000
       Tot       0.0000
    Quadrupole Moments (Debye-Ang)
        XX     -21.8933     XY      -0.0000     YY     -18.1801
        XZ      -0.0000     YZ       0.0000     ZZ     -36.2577

 Total job time:  36642.71s(wall), 48229.42s(cpu)
        *  Thank you very much for using Q-Chem.  Have a nice day.  *
