 Q-Chem 5.1, Q-Chem, Inc., Pleasanton, CA (2018)
 Q-Chem 5.1.0 for Mac (Intel) OS X

User input:
--------------------------------------------------------------
$comment
RI-MP2/cc-pVTZ optimized geometry.
$end

$molecule
0 1
    H         2.4750347531    0.0000000000    0.0000000000
    C         1.3935929418    0.0000000000    0.0000000000
    C         0.6967964709    1.2068868901    0.0000000000
    H         1.2375173766    2.1434429715    0.0000000000
    C        -0.6967964709    1.2068868901    0.0000000000
    H        -1.2375173766    2.1434429715    0.0000000000
    C        -1.3935929418    0.0000000000    0.0000000000
    H        -2.4750347531    0.0000000000    0.0000000000
    C        -0.6967964709   -1.2068868901    0.0000000000
    H        -1.2375173766   -2.1434429715    0.0000000000
    C         0.6967964709   -1.2068868901    0.0000000000
    H         1.2375173766   -2.1434429715    0.0000000000
$end

$rem
   JOB_TYPE  =  SP
   BASIS  =  aug-cc-pVDZ
   METHOD  =  EOM-CCSD
   CVS_EE_STATES = [0,0,0,0,0,5,5,5]
!   CC_MEMORY = 80000
   cc_trans_prop = 1
$end
--------------------------------------------------------------

             Standard Nuclear Orientation (Angstroms)
    I     Atom           X                Y                Z
 ----------------------------------------------------------------
    1      H       2.4750347531     0.0000000000    -0.0000000000
    2      C       1.3935929418     0.0000000000    -0.0000000000
    3      C       0.6967964709     1.2068868901     0.0000000000
    4      H       1.2375173766     2.1434429715     0.0000000000
    5      C      -0.6967964709     1.2068868901     0.0000000000
    6      H      -1.2375173766     2.1434429715     0.0000000000
    7      C      -1.3935929418     0.0000000000     0.0000000000
    8      H      -2.4750347531     0.0000000000     0.0000000000
    9      C      -0.6967964709    -1.2068868901    -0.0000000000
   10      H      -1.2375173766    -2.1434429715    -0.0000000000
   11      C       0.6967964709    -1.2068868901    -0.0000000000
   12      H       1.2375173766    -2.1434429715    -0.0000000000
 ----------------------------------------------------------------

   11    -230.7282613718      7.88e-09  Convergence criterion met
 CCSD total energy           = -231.57447658
 EOMEE transition 1/B1u
 Total energy = -220.98163362 a.u.  Excitation energy = 288.2459 eV.
 EOMEE transition 2/B1u
 Total energy = -220.98129774 a.u.  Excitation energy = 288.2551 eV.
 EOMEE transition 3/B1u
 Total energy = -220.92475329 a.u.  Excitation energy = 289.7937 eV.
 EOMEE transition 4/B1u
 Total energy = -220.85083282 a.u.  Excitation energy = 291.8052 eV.
 EOMEE transition 5/B1u
 Total energy = -220.84899310 a.u.  Excitation energy = 291.8552 eV.
 EOMEE transition 1/B2u
 Total energy = -220.91239642 a.u.  Excitation energy = 290.1300 eV.
 EOMEE transition 2/B2u
 Total energy = -220.87395668 a.u.  Excitation energy = 291.1760 eV.
 EOMEE transition 3/B2u
 Total energy = -220.87358824 a.u.  Excitation energy = 291.1860 eV.
 EOMEE transition 4/B2u
 Total energy = -220.87148733 a.u.  Excitation energy = 291.2431 eV.
 EOMEE transition 5/B2u
 Total energy = -220.84903430 a.u.  Excitation energy = 291.8541 eV.
 EOMEE transition 1/B3u
 Total energy = -220.91406340 a.u.  Excitation energy = 290.0846 eV.
 EOMEE transition 2/B3u
 Total energy = -220.91239474 a.u.  Excitation energy = 290.1300 eV.
 EOMEE transition 3/B3u
 Total energy = -220.87358405 a.u.  Excitation energy = 291.1861 eV.
 EOMEE transition 4/B3u
 Total energy = -220.87296131 a.u.  Excitation energy = 291.2030 eV.
 EOMEE transition 5/B3u
 Total energy = -220.87146086 a.u.  Excitation energy = 291.2439 eV.

             Orbital Energies (a.u.) and Symmetries
 --------------------------------------------------------------

 Alpha MOs, Restricted
 -- Occupied --
-11.242 -11.242 -11.242 -11.240 -11.240 -11.240  -1.153  -1.017
  1 Ag    1 B3u   1 B2u   2 Ag    1 B1g   2 B3u   3 Ag    3 B3u
 -1.017  -0.826  -0.826  -0.711  -0.645  -0.620  -0.589  -0.589
  2 B2u   4 Ag    2 B1g   5 Ag    4 B3u   3 B2u   5 B3u   4 B2u
 -0.502  -0.495  -0.495  -0.337  -0.337
  1 B1u   6 Ag    3 B1g   1 B2g   1 B3g

 Beta MOs, Restricted
 -- Occupied --
-11.242 -11.242 -11.242 -11.240 -11.240 -11.240  -1.153  -1.017
  1 Ag    1 B3u   1 B2u   2 Ag    1 B1g   2 B3u   3 Ag    3 B3u
 -1.017  -0.826  -0.826  -0.711  -0.645  -0.620  -0.589  -0.589
  2 B2u   4 Ag    2 B1g   5 Ag    4 B3u   3 B2u   5 B3u   4 B2u
 -0.502  -0.495  -0.495  -0.337  -0.337
  1 B1u   6 Ag    3 B1g   1 B2g   1 B3g

          Ground-State Mulliken Net Atomic Charges

     Atom                 Charge (a.u.)
  ----------------------------------------
      1 H                    -0.439910
      2 C                     0.439904
      3 C                     0.439914
      4 H                    -0.439911
      5 C                     0.439914
      6 H                    -0.439911
      7 C                     0.439904
      8 H                    -0.439910
      9 C                     0.439914
     10 H                    -0.439911
     11 C                     0.439914
     12 H                    -0.439911
  ----------------------------------------
  Sum of atomic charges =     0.000000

                    Cartesian Multipole Moments
 -----------------------------------------------------------------
    Charge (ESU x 10^10)
                 0.0000
    Dipole Moment (Debye)
         X       0.0000      Y       0.0000      Z      -0.0000
       Tot       0.0000
    Quadrupole Moments (Debye-Ang)
        XX     -32.0069     XY      -0.0000     YY     -32.0069
        XZ       0.0000     YZ      -0.0000     ZZ     -41.2412

 Total job time:  5126.25s(wall), 8766.52s(cpu)
        *  Thank you very much for using Q-Chem.  Have a nice day.  *
