 Q-Chem 5.1, Q-Chem, Inc., Pleasanton, CA (2018)
 Q-Chem 5.1.1 for Intel X86 EM64T Linux

User input:
--------------------------------------------------------------
$comment
RI-MP2/cc-pVTZ optimized geometry.
Open-shell calculation
6-311(2+,+)G** basis with unconracted core
$end

$molecule
+1 2
    H         2.4750347531    0.0000000000    0.0000000000
    C         1.3935929418    0.0000000000    0.0000000000
    C         0.6967964709    1.2068868901    0.0000000000
    H         1.2375173766    2.1434429715    0.0000000000
    C        -0.6967964709    1.2068868901    0.0000000000
    H        -1.2375173766    2.1434429715    0.0000000000
    C        -1.3935929418    0.0000000000    0.0000000000
    H        -2.4750347531    0.0000000000    0.0000000000
    C        -0.6967964709   -1.2068868901    0.0000000000
    H        -1.2375173766   -2.1434429715    0.0000000000
    C         0.6967964709   -1.2068868901    0.0000000000
    H         1.2375173766   -2.1434429715    0.0000000000
$end

$rem
   JOB_TYPE  =  SP
   BASIS  =  general
   METHOD  =  EOM-CCSD
   CVS_EE_STATES = [0,0,0,0,0,6,6,6]  Bright transitions only
   CC_MEMORY = 80000
   cc_trans_prop = 1
   EOM_DAVIDSON_MAXVECTORS = 120
   eom_shift = 10327  281 eV
$end

$basis
H    0
S    3    1.000000
   3.38650000E+01    2.54938000E-02
   5.09479000E+00    1.90373000E-01
   1.15879000E+00    8.52161000E-01
S    1    1.000000
   3.25840000E-01    1.00000000E+00
S    1    1.000000
   1.02741000E-01    1.00000000E+00
S    1    1.000000
   3.60000000E-02    1.00000000E+00
P    1    1.000000
   7.50000000E-01    1.00000000E+00
****
C    0
S    1    1.000000
   4.56324000E+03    1.96665000E-03
S    1    1.000000
   6.82024000E+02    1.52306000E-02
S    1    1.000000
   1.54973000E+02    7.61269000E-02
S    1    1.000000
   4.44553000E+01    2.60801000E-01
S    1    1.000000
   1.30290000E+01    6.16462000E-01
S    1    1.000000
   1.82773000E+00    2.21006000E-01
SP   3    1.000000
   2.09642000E+01    1.14660000E-01   4.02487000E-02
   4.80331000E+00    9.19999000E-01   2.37594000E-01
   1.45933000E+00   -3.03068000E-03   8.15854000E-01
SP   1    1.000000
   4.83456000E-01    1.00000000E+00   1.00000000E+00
SP   1    1.000000
   1.45585000E-01    1.00000000E+00   1.00000000E+00
SP   1    1.000000
   4.38000000E-02    1.00000000E+00   1.00000000E+00
SP   1    1.000000
   1.31927711E-02    1.00000000E+00   1.00000000E+00
D    1    1.000000
   6.26000000E-01    1.00000000E+00
****
$end
--------------------------------------------------------------

             Standard Nuclear Orientation (Angstroms)
    I     Atom           X                Y                Z
 ----------------------------------------------------------------
    1      H       2.4750347531     0.0000000000    -0.0000000000
    2      C       1.3935929418     0.0000000000    -0.0000000000
    3      C       0.6967964709     1.2068868901     0.0000000000
    4      H       1.2375173766     2.1434429715     0.0000000000
    5      C      -0.6967964709     1.2068868901     0.0000000000
    6      H      -1.2375173766     2.1434429715     0.0000000000
    7      C      -1.3935929418     0.0000000000     0.0000000000
    8      H      -2.4750347531     0.0000000000     0.0000000000
    9      C      -0.6967964709    -1.2068868901    -0.0000000000
   10      H      -1.2375173766    -2.1434429715    -0.0000000000
   11      C       0.6967964709    -1.2068868901    -0.0000000000
   12      H       1.2375173766    -2.1434429715    -0.0000000000
 ----------------------------------------------------------------

   15    -230.4654400386      5.51e-09  Convergence criterion met
 Total energy in the final basis set =     -230.4654400386
 CCSD total energy           = -231.28706197
        Solving for CVS-EOMEE-CCSD B1u transitions.
 EOMEE transition 1/B1u
 Total energy = -220.94700628 a.u.  Excitation energy = 281.3672 eV.
 EOMEE transition 2/B1u
 Total energy = -220.81308387 a.u.  Excitation energy = 285.0114 eV.
 EOMEE transition 3/B1u
 Total energy = -220.78028886 a.u.  Excitation energy = 285.9038 eV.
 EOMEE transition 4/B1u
 Total energy = -220.76388159 a.u.  Excitation energy = 286.3503 eV.
 EOMEE transition 5/B1u
 Total energy = -220.71893167 a.u.  Excitation energy = 287.5735 eV.
 EOMEE transition 6/B1u
 Total energy = -220.68761515 a.u.  Excitation energy = 288.4256 eV.
        Solving for CVS-EOMEE-CCSD B2u transitions.
 EOMEE transition 1/B2u
 Total energy = -220.62575826 a.u.  Excitation energy = 290.1088 eV.
 EOMEE transition 2/B2u
 Total energy = -220.60592259 a.u.  Excitation energy = 290.6486 eV.
 EOMEE transition 3/B2u
 Total energy = -220.59209444 a.u.  Excitation energy = 291.0249 eV.
 EOMEE transition 4/B2u
 Total energy = -220.58473142 a.u.  Excitation energy = 291.2252 eV.
 EOMEE transition 5/B2u
 Total energy = -220.57286574 a.u.  Excitation energy = 291.5481 eV.
 EOMEE transition 6/B2u
 Total energy = -220.56522732 a.u.  Excitation energy = 291.7560 eV.
        Solving for CVS-EOMEE-CCSD B3u transitions.
 EOMEE transition 1/B3u
 Total energy = -220.65789766 a.u.  Excitation energy = 289.2343 eV.
 EOMEE transition 2/B3u
 Total energy = -220.64178127 a.u.  Excitation energy = 289.6728 eV.
 EOMEE transition 3/B3u
 Total energy = -220.62647548 a.u.  Excitation energy = 290.0893 eV.
 EOMEE transition 4/B3u
 Total energy = -220.61084783 a.u.  Excitation energy = 290.5146 eV.
 EOMEE transition 5/B3u
 Total energy = -220.60702921 a.u.  Excitation energy = 290.6185 eV.
 EOMEE transition 6/B3u
 Total energy = -220.60226592 a.u.  Excitation energy = 290.7481 eV.

             Orbital Energies (a.u.) and Symmetries
 --------------------------------------------------------------

 Alpha MOs, Unrestricted
 -- Occupied --
-11.495 -11.495 -11.494 -11.494 -11.442 -11.442  -1.403  -1.282
  1 B2u   1 Ag    1 B3u   1 B1g   2 B3u   2 Ag    3 Ag    2 B2u
 -1.238  -1.063  -1.057  -0.938  -0.866  -0.860  -0.830  -0.801
  3 B3u   2 B1g   4 Ag    5 Ag    4 B3u   3 B2u   4 B2u   5 B3u
 -0.757  -0.723  -0.720  -0.625  -0.547
  1 B1u   3 B1g   6 Ag    1 B3g   1 B2g

 Beta MOs, Unrestricted
 -- Occupied --
-11.487 -11.487 -11.486 -11.486 -11.449 -11.449  -1.377  -1.242
  1 Ag    1 B2u   1 B3u   1 B1g   2 B3u   2 Ag    3 Ag    3 B3u
 -1.229  -1.051  -1.042  -0.934  -0.860  -0.853  -0.821  -0.803
  2 B2u   4 Ag    2 B1g   5 Ag    4 B3u   3 B2u   4 B2u   5 B3u
 -0.721  -0.716  -0.670  -0.569
  3 B1g   6 Ag    1 B1u   1 B2g

          Ground-State Mulliken Net Atomic Charges

     Atom                 Charge (a.u.)    Spin (a.u.)
  --------------------------------------------------------
      1 H                     0.276428       0.019705
      2 C                    -0.271064      -0.453970
      3 C                    -0.058162       0.500440
      4 H                     0.305480      -0.033307
      5 C                    -0.058162       0.500440
      6 H                     0.305480      -0.033307
      7 C                    -0.271064      -0.453970
      8 H                     0.276428       0.019705
      9 C                    -0.058162       0.500440
     10 H                     0.305480      -0.033307
     11 C                    -0.058162       0.500440
     12 H                     0.305480      -0.033307
  --------------------------------------------------------
  Sum of atomic charges =     1.000000

                    Cartesian Multipole Moments
 -----------------------------------------------------------------
    Charge (ESU x 10^10)
                 4.8032
    Dipole Moment (Debye)
         X      -0.0000      Y      -0.0000      Z       0.0000
       Tot       0.0000
    Quadrupole Moments (Debye-Ang)
        XX     -22.8122     XY      -0.0000     YY     -17.9126
        XZ      -0.0000     YZ      -0.0000     ZZ     -36.0327

 Total job time:  7860.36s(wall), 46633.10s(cpu)
        *  Thank you very much for using Q-Chem.  Have a nice day.  *
