 Q-Chem 5.1, Q-Chem, Inc., Pleasanton, CA (2018)
 Q-Chem 5.1.1 for Intel X86 EM64T Linux

User input:
--------------------------------------------------------------
$comment
Optimized Cl-Bz, XAS
Cation spectra at neutral geom using 6-311(2+,+)Gss with unconttracted core on C and Cl
$end

$molecule
+1 2
 H        -2.1400320233    0.0000000000    0.5090177858
 C        -1.2120583232    0.0000000000   -0.0442490642
 C        -1.2042956497    0.0000000000   -1.4361358281
 H        -2.1437187877    0.0000000000   -1.9716770234
 C         0.0000000000    0.0000000000   -2.1351330277
 H         0.0000000000    0.0000000000   -3.2159870334
 C         1.2042956497    0.0000000000   -1.4361358281
 H         2.1437187877    0.0000000000   -1.9716770234
 C         1.2120583232    0.0000000000   -0.0442490642
 H         2.1400320233    0.0000000000    0.5090177858
 C         0.0000000000    0.0000000000    0.6386615242
 Cl        0.0000000000    0.0000000000    2.3695929760
$end

$rem
   JOB_TYPE  =  SP
   BASIS  =  general
   METHOD  =  EOM-CCSD
   CVS_EE_STATES = [5,0,5,5]   bright transitions only
   CC_MEMORY = 100000
   cc_trans_prop = 1
   EOM_DAVIDSON_MAXVECTORS = 120
   eom_shift = 07277  198 eV
$end

$basis
H    0
S    3    1.000000
   3.38650000E+01    2.54938000E-02
   5.09479000E+00    1.90373000E-01
   1.15879000E+00    8.52161000E-01
S    1    1.000000
   3.25840000E-01    1.00000000E+00
S    1    1.000000
   1.02741000E-01    1.00000000E+00
S    1    1.000000
   3.60000000E-02    1.00000000E+00
P    1    1.000000
   7.50000000E-01    1.00000000E+00
****
C    0
S    1    1.000000
   4.56324000E+03    1.96665000E-03
S    1    1.000000
   6.82024000E+02    1.52306000E-02
S    1    1.000000
   1.54973000E+02    7.61269000E-02
S    1    1.000000
   4.44553000E+01    2.60801000E-01
S    1    1.000000
   1.30290000E+01    6.16462000E-01
S    1    1.000000
   1.82773000E+00    2.21006000E-01
SP   3    1.000000
   2.09642000E+01    1.14660000E-01   4.02487000E-02
   4.80331000E+00    9.19999000E-01   2.37594000E-01
   1.45933000E+00   -3.03068000E-03   8.15854000E-01
SP   1    1.000000
   4.83456000E-01    1.00000000E+00   1.00000000E+00
SP   1    1.000000
   1.45585000E-01    1.00000000E+00   1.00000000E+00
SP   1    1.000000
   4.38000000E-02    1.00000000E+00   1.00000000E+00
SP   1    1.000000
   1.31927711E-02    1.00000000E+00   1.00000000E+00
D    1    1.000000
   6.26000000E-01    1.00000000E+00
****
Cl   0
S    1    1.000000
   1.05819000E+05    7.38000000E-04
S    1    1.000000
   1.58720000E+04    5.71800000E-03
S    1    1.000000
   3.61965000E+03    2.94950000E-02
S    1    1.000000
   1.03080000E+03    1.17286000E-01
S    1    1.000000
   3.39908000E+02    3.62949000E-01
S    1    1.000000
   1.24538000E+02    5.84149000E-01
S    3    1.000000
   1.24538000E+02    1.34177000E-01
   4.95135000E+01    6.24250000E-01
   2.08056000E+01    2.91756000E-01
S    1    1.000000
   6.58346000E+00    1.00000000E+00
S    1    1.000000
   2.56468000E+00    1.00000000E+00
S    1    1.000000
   5.59763000E-01    1.00000000E+00
S    1    1.000000
   1.83273000E-01    1.00000000E+00
P    1    1.000000
   5.89776000E+02    2.39100000E-03
P    1    1.000000
   1.39849000E+02    1.85040000E-02
P    1    1.000000
   4.51413000E+01    8.13770000E-02
P    1    1.000000
   1.68733000E+01    2.21552000E-01
P    1    1.000000
   6.74110000E+00    7.72569000E-01
P    2    1.000000
   6.74110000E+00   -1.57224400E+00
   2.77152000E+00    9.92389000E-01
P    1    1.000000
   1.02387000E+00    1.00000000E+00
P    1    1.000000
   3.81368000E-01    1.00000000E+00
P    1    1.000000
   1.09437000E-01    1.00000000E+00
SP   1    1.000000
   4.83000000E-02    1.00000000E+00   1.00000000E+00
SP   1    1.000000
   1.45481928E-02    1.00000000E+00   1.00000000E+00
D    1    1.000000
   7.50000000E-01    1.00000000E+00
****
$end

--------------------------------------------------------------

             Standard Nuclear Orientation (Angstroms)
    I     Atom           X                Y                Z
 ----------------------------------------------------------------
    1      H      -2.1400320233     0.0000000000     0.3814604176
    2      C      -1.2120583232     0.0000000000    -0.1718064324
    3      C      -1.2042956497     0.0000000000    -1.5636931963
    4      H      -2.1437187877     0.0000000000    -2.0992343916
    5      C      -0.0000000000     0.0000000000    -2.2626903959
    6      H      -0.0000000000     0.0000000000    -3.3435444016
    7      C       1.2042956497     0.0000000000    -1.5636931963
    8      H       2.1437187877     0.0000000000    -2.0992343916
    9      C       1.2120583232    -0.0000000000    -0.1718064324
   10      H       2.1400320233    -0.0000000000     0.3814604176
   11      C       0.0000000000    -0.0000000000     0.5111041560
   12      Cl      0.0000000000    -0.0000000000     2.2420356078
 ----------------------------------------------------------------

   31    -689.3859355352      3.83e-09  Convergence criterion met
 Total energy in the final basis set =     -689.3859355352
 CCSD total energy           = -690.36129179
        Solving for CVS-EOMEE-CCSD A1 transitions.
 EOMEE transition 1/A1
 Total energy = -683.09277831 a.u.  Excitation energy = 197.7863 eV.
 EOMEE transition 2/A1
 Total energy = -682.95470076 a.u.  Excitation energy = 201.5436 eV.
 EOMEE transition 3/A1
 Total energy = -682.92205264 a.u.  Excitation energy = 202.4320 eV.
 EOMEE transition 4/A1
 Total energy = -682.90084069 a.u.  Excitation energy = 203.0092 eV.
 EOMEE transition 5/A1
 Total energy = -682.84238492 a.u.  Excitation energy = 204.5999 eV.
        Solving for CVS-EOMEE-CCSD B1 transitions.
 EOMEE transition 1/B1
 Total energy = -682.95310020 a.u.  Excitation energy = 201.5871 eV.
 EOMEE transition 2/B1
 Total energy = -682.94069638 a.u.  Excitation energy = 201.9247 eV.
 EOMEE transition 3/B1
 Total energy = -682.82862572 a.u.  Excitation energy = 204.9743 eV.
 EOMEE transition 4/B1
 Total energy = -682.82750912 a.u.  Excitation energy = 205.0047 eV.
 EOMEE transition 5/B1
 Total energy = -682.81016144 a.u.  Excitation energy = 205.4767 eV.
        Solving for CVS-EOMEE-CCSD B2 transitions.
 EOMEE transition 1/B2
 Total energy = -683.08736764 a.u.  Excitation energy = 197.9335 eV.
 EOMEE transition 2/B2
 Total energy = -682.95074564 a.u.  Excitation energy = 201.6512 eV.
 EOMEE transition 3/B2
 Total energy = -682.94165825 a.u.  Excitation energy = 201.8985 eV.
 EOMEE transition 4/B2
 Total energy = -682.90060991 a.u.  Excitation energy = 203.0155 eV.
 EOMEE transition 5/B2
 Total energy = -682.83023943 a.u.  Excitation energy = 204.9304 eV.

             Orbital Energies (a.u.) and Symmetries
 --------------------------------------------------------------

 Alpha MOs, Unrestricted
 -- Occupied --
-105.06  -11.58  -11.48  -11.48  -11.48  -11.46  -11.46  -10.78
  1 A1    2 A1    3 A1    1 B1    4 A1    2 B1    5 A1    6 A1
 -8.251  -8.249  -8.247  -1.435  -1.345  -1.252  -1.239  -1.070
  1 B2    7 A1    3 B1    8 A1    9 A1    4 B1   10 A1    5 B1
 -1.041  -0.929  -0.875  -0.854  -0.815  -0.814  -0.792  -0.730
 11 A1   12 A1    6 B1   13 A1   14 A1    7 B1    2 B2    8 B1
 -0.725  -0.689  -0.662  -0.597  -0.564
 15 A1    3 B2    9 B1    4 B2    1 A2

 Beta MOs, Unrestricted
 -- Occupied --
-105.06  -11.57  -11.47  -11.47  -11.47  -11.47  -11.47  -10.78
  1 A1    2 A1    1 B1    3 A1    4 A1    2 B1    5 A1    6 A1
 -8.250  -8.246  -8.243  -1.408  -1.332  -1.250  -1.198  -1.063
  7 A1    3 B1    1 B2    8 A1    9 A1    4 B1   10 A1    5 B1
 -1.028  -0.923  -0.870  -0.849  -0.814  -0.806  -0.727  -0.724
 11 A1   12 A1    6 B1   13 A1    7 B1   14 A1    8 B1   15 A1
 -0.708  -0.658  -0.638  -0.569
  2 B2    9 B1    3 B2    1 A2

          Ground-State Mulliken Net Atomic Charges

     Atom                 Charge (a.u.)    Spin (a.u.)
  --------------------------------------------------------
      1 H                     0.275085      -0.032626
      2 C                    -0.416721       0.275325
      3 C                    -0.334967      -0.439211
      4 H                     0.311049       0.022021
      5 C                    -0.197117       0.806094
      6 H                     0.286967      -0.046841
      7 C                    -0.334967      -0.439211
      8 H                     0.311049       0.022021
      9 C                    -0.416721       0.275325
     10 H                     0.275085      -0.032626
     11 C                     0.392817       0.472122
     12 Cl                    0.848440       0.117607
  --------------------------------------------------------
  Sum of atomic charges =     1.000000

                    Cartesian Multipole Moments
 -----------------------------------------------------------------
    Charge (ESU x 10^10)
                 4.8032
    Dipole Moment (Debye)
         X       0.0000      Y      -0.0000      Z      -3.4357
       Tot       3.4357
    Quadrupole Moments (Debye-Ang)
        XX     -33.4906     XY      -0.0000     YY     -47.6577
        XZ      -0.0000     YZ      -0.0000     ZZ     -25.8987

 Total job time:  11869.33s(wall), 81684.39s(cpu)
        *  Thank you very much for using Q-Chem.  Have a nice day.  *
