 Q-Chem 5.1, Q-Chem, Inc., Pleasanton, CA (2018)
 Q-Chem 5.1.1 for Intel X86 EM64T Linux

User input:
--------------------------------------------------------------
$comment
Optimized Cl-Bz, XAS
$end

$molecule
0 1
 H        -2.1400320233    0.0000000000    0.5090177858
 C        -1.2120583232    0.0000000000   -0.0442490642
 C        -1.2042956497    0.0000000000   -1.4361358281
 H        -2.1437187877    0.0000000000   -1.9716770234
 C         0.0000000000    0.0000000000   -2.1351330277
 H         0.0000000000    0.0000000000   -3.2159870334
 C         1.2042956497    0.0000000000   -1.4361358281
 H         2.1437187877    0.0000000000   -1.9716770234
 C         1.2120583232    0.0000000000   -0.0442490642
 H         2.1400320233    0.0000000000    0.5090177858
 C         0.0000000000    0.0000000000    0.6386615242
 Cl        0.0000000000    0.0000000000    2.3695929760
$end

$rem
   JOB_TYPE  =  SP
   BASIS  =  6-311(2+,+)G**
   METHOD  =  EOM-CCSD
   CVS_EE_STATES = [6,0,6,6]
   CC_MEMORY = 80000
   cc_trans_prop = 1
   PRINT_GENERAL_BASIS = true
$end

--------------------------------------------------------------

             Standard Nuclear Orientation (Angstroms)
    I     Atom           X                Y                Z
 ----------------------------------------------------------------
    1      H      -2.1400320233     0.0000000000     0.3814604176
    2      C      -1.2120583232     0.0000000000    -0.1718064324
    3      C      -1.2042956497     0.0000000000    -1.5636931963
    4      H      -2.1437187877     0.0000000000    -2.0992343916
    5      C      -0.0000000000     0.0000000000    -2.2626903959
    6      H      -0.0000000000     0.0000000000    -3.3435444016
    7      C       1.2042956497     0.0000000000    -1.5636931963
    8      H       2.1437187877     0.0000000000    -2.0992343916
    9      C       1.2120583232    -0.0000000000    -0.1718064324
   10      H       2.1400320233    -0.0000000000     0.3814604176
   11      C       0.0000000000    -0.0000000000     0.5111041560
   12      Cl      0.0000000000    -0.0000000000     2.2420356078
 ----------------------------------------------------------------

   14    -689.6804356880      4.48e-09  Convergence criterion met
 Total energy in the final basis set =     -689.6804356880
 CCSD total energy           = -690.68279061
 EOMEE transition 1/A1
 Total energy = -683.21744587 a.u.  Excitation energy = 203.1424 eV.
 EOMEE transition 2/A1
 Total energy = -683.16761221 a.u.  Excitation energy = 204.4984 eV.
 EOMEE transition 3/A1
 Total energy = -683.16579333 a.u.  Excitation energy = 204.5479 eV.
 EOMEE transition 4/A1
 Total energy = -683.13940041 a.u.  Excitation energy = 205.2661 eV.
 EOMEE transition 5/A1
 Total energy = -683.13442511 a.u.  Excitation energy = 205.4015 eV.
 EOMEE transition 6/A1
 Total energy = -683.12265479 a.u.  Excitation energy = 205.7218 eV.
 EOMEE transition 1/B1
 Total energy = -683.23095118 a.u.  Excitation energy = 202.7749 eV.
 EOMEE transition 2/B1
 Total energy = -683.17279047 a.u.  Excitation energy = 204.3575 eV.
 EOMEE transition 3/B1
 Total energy = -683.14132498 a.u.  Excitation energy = 205.2137 eV.
 EOMEE transition 4/B1
 Total energy = -683.13516533 a.u.  Excitation energy = 205.3813 eV.
 EOMEE transition 5/B1
 Total energy = -683.12864409 a.u.  Excitation energy = 205.5588 eV.
 EOMEE transition 6/B1
 Total energy = -683.11708931 a.u.  Excitation energy = 205.8732 eV.
 EOMEE transition 1/B2
 Total energy = -683.23098032 a.u.  Excitation energy = 202.7741 eV.
 EOMEE transition 2/B2
 Total energy = -683.17303815 a.u.  Excitation energy = 204.3508 eV.
 EOMEE transition 3/B2
 Total energy = -683.16388507 a.u.  Excitation energy = 204.5998 eV.
 EOMEE transition 4/B2
 Total energy = -683.13136476 a.u.  Excitation energy = 205.4847 eV.
 EOMEE transition 5/B2
 Total energy = -683.12889506 a.u.  Excitation energy = 205.5520 eV.
 EOMEE transition 6/B2
 Total energy = -683.11749185 a.u.  Excitation energy = 205.8622 eV.

             Orbital Energies (a.u.) and Symmetries
 --------------------------------------------------------------

 Alpha MOs, Restricted
 -- Occupied --
-104.84  -11.31  -11.25  -11.25  -11.25  -11.25  -11.25  -10.57
  1 A1    2 A1    3 A1    1 B1    4 A1    2 B1    5 A1    6 A1
 -8.034  -8.031  -8.031  -1.196  -1.124  -1.036  -1.000  -0.850
  7 A1    3 B1    1 B2    8 A1    9 A1    4 B1   10 A1    5 B1
 -0.823  -0.715  -0.651  -0.651  -0.607  -0.593  -0.547  -0.520
 11 A1   12 A1    6 B1   13 A1    7 B1   14 A1    2 B2    8 B1
 -0.515  -0.471  -0.456  -0.354  -0.338
 15 A1    3 B2    9 B1    1 A2    4 B2

 Beta MOs, Restricted
 -- Occupied --
-104.84  -11.31  -11.25  -11.25  -11.25  -11.25  -11.25  -10.57
  1 A1    2 A1    3 A1    1 B1    4 A1    2 B1    5 A1    6 A1
 -8.034  -8.031  -8.031  -1.196  -1.124  -1.036  -1.000  -0.850
  7 A1    3 B1    1 B2    8 A1    9 A1    4 B1   10 A1    5 B1
 -0.823  -0.715  -0.651  -0.651  -0.607  -0.593  -0.547  -0.520
 11 A1   12 A1    6 B1   13 A1    7 B1   14 A1    2 B2    8 B1
 -0.515  -0.471  -0.456  -0.354  -0.338
 15 A1    3 B2    9 B1    1 A2    4 B2

          Ground-State Mulliken Net Atomic Charges

     Atom                 Charge (a.u.)
  ----------------------------------------
      1 H                     0.197292
      2 C                    -0.483136
      3 C                    -0.337542
      4 H                     0.231679
      5 C                    -0.370492
      6 H                     0.187345
      7 C                    -0.337542
      8 H                     0.231679
      9 C                    -0.483136
     10 H                     0.197292
     11 C                     0.401812
     12 Cl                    0.564748
  ----------------------------------------
  Sum of atomic charges =    -0.000000

                    Cartesian Multipole Moments
 -----------------------------------------------------------------
    Charge (ESU x 10^10)
                -0.0000
    Dipole Moment (Debye)
         X      -0.0000      Y      -0.0000      Z      -1.9695
       Tot       1.9695
    Quadrupole Moments (Debye-Ang)
        XX     -42.4467     XY       0.0000     YY     -52.7652
        XZ       0.0000     YZ      -0.0000     ZZ     -46.7144

 Total job time:  5475.71s(wall), 35322.15s(cpu)
        *  Thank you very much for using Q-Chem.  Have a nice day.  *
