 Q-Chem 5.1, Q-Chem, Inc., Pleasanton, CA (2018)
 Q-Chem 5.1.0 for Mac (Intel) OS X

User input:
--------------------------------------------------------------
$comment
Optimized Cl-Bz cation, B2 state, XAS of the cation
$end

$molecule
+1 2
H        -2.1651573376    0.0000000000    0.3879499861
C        -1.2470507240    0.0000000000   -0.1801247700
C        -1.2361338652    0.0000000000   -1.5492083889
H        -2.1609781249    0.0000000000   -2.1059158595
C         0.0000000000    0.0000000000   -2.2400161949
H         0.0000000000    0.0000000000   -3.3212297746
C         1.2361338652    0.0000000000   -1.5492083889
H         2.1609781249    0.0000000000   -2.1059158595
C         1.2470507240    0.0000000000   -0.1801247700
H         2.1651573376    0.0000000000    0.3879499861
C         0.0000000000    0.0000000000    0.5119321622
Cl        0.0000000000    0.0000000000    2.1842696329
$end

$rem
   JOB_TYPE  =  SP
   BASIS  =  aug-cc-pVDZ
   METHOD  =  EOM-CCSD
   CVS_EE_STATES = [5,0,4,5]   bright transitions only
!   CC_MEMORY = 80000
   cc_trans_prop = 1
$end

--------------------------------------------------------------

             Standard Nuclear Orientation (Angstroms)
    I     Atom           X                Y                Z
 ----------------------------------------------------------------
    1      H      -2.1651573376     0.0000000000     0.4007961907
    2      C      -1.2470507240     0.0000000000    -0.1672785654
    3      C      -1.2361338652    -0.0000000000    -1.5363621843
    4      H      -2.1609781249    -0.0000000000    -2.0930696549
    5      C       0.0000000000    -0.0000000000    -2.2271699903
    6      H       0.0000000000    -0.0000000000    -3.3083835700
    7      C       1.2361338652    -0.0000000000    -1.5363621843
    8      H       2.1609781249    -0.0000000000    -2.0930696549
    9      C       1.2470507240    -0.0000000000    -0.1672785654
   10      H       2.1651573376    -0.0000000000     0.4007961907
   11      C      -0.0000000000     0.0000000000     0.5247783668
   12      Cl     -0.0000000000     0.0000000000     2.1971158375
 ----------------------------------------------------------------

   21    -689.3635587295      7.25e-09  Convergence criterion met
 CCSD total energy           = -690.31855155
        Solving for CVS-EOMEE-CCSD A1 transitions.
 EOMEE transition 1/A1
 Total energy = -682.92983308 a.u.  Excitation energy = 201.0573 eV.
 EOMEE transition 2/A1
 Total energy = -682.77194133 a.u.  Excitation energy = 205.3537 eV.
 EOMEE transition 3/A1
 Total energy = -682.76304492 a.u.  Excitation energy = 205.5958 eV.
 EOMEE transition 4/A1
 Total energy = -682.74339402 a.u.  Excitation energy = 206.1305 eV.
 EOMEE transition 5/A1
 Total energy = -682.70284610 a.u.  Excitation energy = 207.2339 eV.
        Solving for CVS-EOMEE-CCSD B1 transitions.
 EOMEE transition 1/B1
 Total energy = -682.77160192 a.u.  Excitation energy = 205.3629 eV.
 EOMEE transition 2/B1
 Total energy = -682.76046415 a.u.  Excitation energy = 205.6660 eV.
 EOMEE transition 3/B1
 Total energy = -682.68068513 a.u.  Excitation energy = 207.8369 eV.
 EOMEE transition 4/B1
 Total energy = -682.68068513 a.u.  Excitation energy = 207.8369 eV.
        Solving for CVS-EOMEE-CCSD B2 transitions.
 EOMEE transition 1/B2
 Total energy = -682.92529909 a.u.  Excitation energy = 201.1806 eV.
 EOMEE transition 2/B2
 Total energy = -682.76955042 a.u.  Excitation energy = 205.4188 eV.
 EOMEE transition 3/B2
 Total energy = -682.76201129 a.u.  Excitation energy = 205.6239 eV.
 EOMEE transition 4/B2
 Total energy = -682.76091689 a.u.  Excitation energy = 205.6537 eV.
 EOMEE transition 5/B2
 Total energy = -682.69685933 a.u.  Excitation energy = 207.3968 eV.

             Orbital Energies (a.u.) and Symmetries
 --------------------------------------------------------------

 Alpha MOs, Unrestricted
 -- Occupied --
-105.06  -11.57  -11.49  -11.48  -11.48  -11.46  -11.46  -10.79
  1 A1    2 A1    3 A1    1 B1    4 A1    2 B1    5 A1    6 A1
 -8.254  -8.254  -8.250  -1.434  -1.348  -1.254  -1.223  -1.060
  1 B2    7 A1    3 B1    8 A1    9 A1    4 B1   10 A1    5 B1
 -1.042  -0.923  -0.868  -0.859  -0.817  -0.807  -0.787  -0.730
 11 A1   12 A1    6 B1   13 A1    7 B1   14 A1    2 B2   15 A1
 -0.725  -0.690  -0.661  -0.581  -0.565
  8 B1    3 B2    9 B1    4 B2    1 A2

 Beta MOs, Unrestricted
 -- Occupied --
-105.06  -11.57  -11.47  -11.47  -11.47  -11.47  -11.47  -10.79
  1 A1    2 A1    3 A1    1 B1    4 A1    2 B1    5 A1    6 A1
 -8.254  -8.249  -8.246  -1.411  -1.336  -1.254  -1.181  -1.053
  7 A1    3 B1    1 B2    8 A1    9 A1    4 B1   10 A1    5 B1
 -1.027  -0.917  -0.864  -0.854  -0.818  -0.798  -0.728  -0.721
 11 A1   12 A1    6 B1   13 A1    7 B1   14 A1   15 A1    8 B1
 -0.713  -0.657  -0.638  -0.572
  2 B2    9 B1    3 B2    1 A2

          Ground-State Mulliken Net Atomic Charges

     Atom                 Charge (a.u.)    Spin (a.u.)
  --------------------------------------------------------
      1 H                    -0.321924      -0.025969
      2 C                     0.514456       0.380375
      3 C                     0.901854      -0.572306
      4 H                    -0.364045       0.002935
      5 C                     0.269937       0.969377
      6 H                    -0.378064      -0.029417
      7 C                     0.901854      -0.572306
      8 H                    -0.364045       0.002935
      9 C                     0.514456       0.380375
     10 H                    -0.321924      -0.025969
     11 C                    -0.267364       0.337288
     12 Cl                   -0.085189       0.152681
  --------------------------------------------------------
  Sum of atomic charges =     1.000000

                    Cartesian Multipole Moments
 -----------------------------------------------------------------
    Charge (ESU x 10^10)
                 4.8032
    Dipole Moment (Debye)
         X       0.0000      Y      -0.0000      Z      -3.1281
       Tot       3.1281
    Quadrupole Moments (Debye-Ang)
        XX     -32.8709     XY       0.0000     YY     -47.7982
        XZ       0.0000     YZ      -0.0000     ZZ     -25.4417

 Total job time:  51834.05s(wall), 52072.03s(cpu)
        *  Thank you very much for using Q-Chem.  Have a nice day.  *
