 Q-Chem 5.1, Q-Chem, Inc., Pleasanton, CA (2018)
 Q-Chem 5.1.0 for Mac (Intel) OS X

User input:
--------------------------------------------------------------
$comment
Optimized Cl-Bz, XAS
$end

$molecule
0 1
 H        -2.1400320233    0.0000000000    0.5090177858
 C        -1.2120583232    0.0000000000   -0.0442490642
 C        -1.2042956497    0.0000000000   -1.4361358281
 H        -2.1437187877    0.0000000000   -1.9716770234
 C         0.0000000000    0.0000000000   -2.1351330277
 H         0.0000000000    0.0000000000   -3.2159870334
 C         1.2042956497    0.0000000000   -1.4361358281
 H         2.1437187877    0.0000000000   -1.9716770234
 C         1.2120583232    0.0000000000   -0.0442490642
 H         2.1400320233    0.0000000000    0.5090177858
 C         0.0000000000    0.0000000000    0.6386615242
 Cl        0.0000000000    0.0000000000    2.3695929760
$end

$rem
   JOB_TYPE  =  SP
   BASIS  =  aug-cc-pVDZ
   METHOD  =  EOM-CCSD
   CVS_EE_STATES = [4,4,4,4]
!   CC_MEMORY = 80000
$end

--------------------------------------------------------------

             Standard Nuclear Orientation (Angstroms)
    I     Atom           X                Y                Z
 ----------------------------------------------------------------
    1      H      -2.1400320233     0.0000000000     0.3814604176
    2      C      -1.2120583232     0.0000000000    -0.1718064324
    3      C      -1.2042956497     0.0000000000    -1.5636931963
    4      H      -2.1437187877     0.0000000000    -2.0992343916
    5      C      -0.0000000000     0.0000000000    -2.2626903959
    6      H      -0.0000000000     0.0000000000    -3.3435444016
    7      C       1.2042956497     0.0000000000    -1.5636931963
    8      H       2.1437187877     0.0000000000    -2.0992343916
    9      C       1.2120583232    -0.0000000000    -0.1718064324
   10      H       2.1400320233    -0.0000000000     0.3814604176
   11      C       0.0000000000    -0.0000000000     0.5111041560
   12      Cl      0.0000000000    -0.0000000000     2.2420356078
 ----------------------------------------------------------------

   16    -689.6504919989      8.97e-09  Convergence criterion met
 CCSD total energy           = -690.64469438
 EOMEE transition 1/A1
 Total energy = -683.10524689 a.u.  Excitation energy = 205.1588 eV.
 EOMEE transition 2/A1
 Total energy = -683.05852457 a.u.  Excitation energy = 206.4302 eV.
 EOMEE transition 3/A1
 Total energy = -683.05150563 a.u.  Excitation energy = 206.6212 eV.
 EOMEE transition 4/A1
 Total energy = -683.02137046 a.u.  Excitation energy = 207.4412 eV.
 EOMEE transition 1/A2
 Total energy = -683.05861428 a.u.  Excitation energy = 206.4277 eV.
 EOMEE transition 2/A2
 Total energy = -683.03271815 a.u.  Excitation energy = 207.1324 eV.
 EOMEE transition 3/A2
 Total energy = -683.02248248 a.u.  Excitation energy = 207.4109 eV.
 EOMEE transition 4/A2
 Total energy = -682.99934636 a.u.  Excitation energy = 208.0405 eV.
 EOMEE transition 1/B1
 Total energy = -683.11745865 a.u.  Excitation energy = 204.8265 eV.
 EOMEE transition 2/B1
 Total energy = -683.05665098 a.u.  Excitation energy = 206.4812 eV.
 EOMEE transition 3/B1
 Total energy = -683.01839881 a.u.  Excitation energy = 207.5221 eV.
 EOMEE transition 4/B1
 Total energy = -683.00694779 a.u.  Excitation energy = 207.8337 eV.
 EOMEE transition 1/B2
 Total energy = -683.11744568 a.u.  Excitation energy = 204.8269 eV.
 EOMEE transition 2/B2
 Total energy = -683.05694847 a.u.  Excitation energy = 206.4731 eV.
 EOMEE transition 3/B2
 Total energy = -683.05643884 a.u.  Excitation energy = 206.4869 eV.
 EOMEE transition 4/B2
 Total energy = -683.03609506 a.u.  Excitation energy = 207.0405 eV.

             Orbital Energies (a.u.) and Symmetries
 --------------------------------------------------------------

 Alpha MOs, Restricted
 -- Occupied --
-104.84  -11.31  -11.26  -11.26  -11.26  -11.26  -11.25  -10.57
  1 A1    2 A1    3 A1    1 B1    4 A1    2 B1    5 A1    6 A1
 -8.034  -8.031  -8.031  -1.197  -1.125  -1.036  -1.001  -0.850
  7 A1    3 B1    1 B2    8 A1    9 A1    4 B1   10 A1    5 B1
 -0.823  -0.714  -0.651  -0.650  -0.606  -0.592  -0.547  -0.518
 11 A1   12 A1   13 A1    6 B1    7 B1   14 A1    2 B2    8 B1
 -0.514  -0.471  -0.456  -0.353  -0.337
 15 A1    3 B2    9 B1    1 A2    4 B2

 Beta MOs, Restricted
 -- Occupied --
-104.84  -11.31  -11.26  -11.26  -11.26  -11.26  -11.25  -10.57
  1 A1    2 A1    3 A1    1 B1    4 A1    2 B1    5 A1    6 A1
 -8.034  -8.031  -8.031  -1.197  -1.125  -1.036  -1.001  -0.850
  7 A1    3 B1    1 B2    8 A1    9 A1    4 B1   10 A1    5 B1
 -0.823  -0.714  -0.651  -0.650  -0.606  -0.592  -0.547  -0.518
 11 A1   12 A1   13 A1    6 B1    7 B1   14 A1    2 B2    8 B1
 -0.514  -0.471  -0.456  -0.353  -0.337
 15 A1    3 B2    9 B1    1 A2    4 B2

          Ground-State Mulliken Net Atomic Charges

     Atom                 Charge (a.u.)
  ----------------------------------------
      1 H                    -0.379534
      2 C                     0.345780
      3 C                     0.859259
      4 H                    -0.436506
      5 C                     0.179906
      6 H                    -0.435123
      7 C                     0.859259
      8 H                    -0.436506
      9 C                     0.345780
     10 H                    -0.379534
     11 C                    -0.148725
     12 Cl                   -0.374055
  ----------------------------------------
  Sum of atomic charges =    -0.000000

                    Cartesian Multipole Moments
 -----------------------------------------------------------------
    Charge (ESU x 10^10)
                -0.0000
    Dipole Moment (Debye)
         X      -0.0000      Y       0.0000      Z      -1.9374
       Tot       1.9374
    Quadrupole Moments (Debye-Ang)
        XX     -42.4715     XY       0.0000     YY     -52.7233
        XZ       0.0000     YZ       0.0000     ZZ     -46.6114

 Total job time:  12431.11s(wall), 12915.37s(cpu)
        *  Thank you very much for using Q-Chem.  Have a nice day.  *
