 Q-Chem 5.1, Q-Chem, Inc., Pleasanton, CA (2018)
 Q-Chem 5.1.0 for Mac (Intel) OS X

User input:
--------------------------------------------------------------
$comment
Optimized Cl-Bz, XAS, from a2 state
$end

$molecule
0 1
 H        -2.1400320233    0.0000000000    0.5090177858
 C        -1.2120583232    0.0000000000   -0.0442490642
 C        -1.2042956497    0.0000000000   -1.4361358281
 H        -2.1437187877    0.0000000000   -1.9716770234
 C         0.0000000000    0.0000000000   -2.1351330277
 H         0.0000000000    0.0000000000   -3.2159870334
 C         1.2042956497    0.0000000000   -1.4361358281
 H         2.1437187877    0.0000000000   -1.9716770234
 C         1.2120583232    0.0000000000   -0.0442490642
 H         2.1400320233    0.0000000000    0.5090177858
 C         0.0000000000    0.0000000000    0.6386615242
 Cl        0.0000000000    0.0000000000    2.3695929760
$end

$rem
   JOB_TYPE  =  SP
   BASIS  =  aug-cc-pVDZ
   METHOD  =  HF
$end

--------------------------------------------------------------

    8    -689.6504915492      5.01e-06  Convergence criterion met
 Total job time:  64.57s(wall), 64.26s(cpu)
        *  Thank you very much for using Q-Chem.  Have a nice day.  *

User input: 2 of 2

annas-macbook-pro-3.local 127.0.0
Q-Chem Developer Version! Running on 127.0.0.*
                  Welcome to Q-Chem
     A Quantum Leap Into The Future Of Chemistry

 Q-Chem 5.1, Q-Chem, Inc., Pleasanton, CA (2018)

 Yihan Shao,  Zhengting Gan,  E. Epifanovsky,  A. T. B. Gilbert,  M. Wormit,
 J. Kussmann,  A. W. Lange,  A. Behn,  Jia Deng,  Xintian Feng,  D. Ghosh,
 M. Goldey,  P. R. Horn,  L. D. Jacobson,  I. Kaliman,  T. Kus,  A. Landau,
 Jie Liu,  E. I. Proynov,  R. M. Richard,  R. P. Steele,  E. J. Sundstrom,
 H. L. Woodcock III,  P. M. Zimmerman,  D. Zuev,  B. Albrecht,  E. Alguire,
 S. A. Baeppler,  D. Barton,  Z. Benda,  Y. A. Bernard,  E. J. Berquist,
 K. B. Bravaya,  H. Burton,  D. Casanova,  Chun-Min Chang,  Yunqing Chen,
 A. Chien,  K. D. Closser,  M. P. Coons,  S. Coriani,  S. Dasgupta,
 A. L. Dempwolff,  M. Diedenhofen,  Hainam Do,  R. G. Edgar,  Po-Tung Fang,
 S. Faraji,  S. Fatehi,  Qingguo Feng,  K. D. Fenk,  J. Fosso-Tande,
 Qinghui Ge,  A. Ghysels,  G. Gidofalvi,  J. Gomes,  J. Gonthier,  A. Gunina,
 M. W. D. Hanson-Heine,  P. H. P. Harbach,  A. W. Hauser,  J. E. Herr,
 E. G. Hohenstein,  Z. C. Holden,  Kerwin Hui,  T.-C. Jagau,  Hyunjun Ji,
 B. Kaduk,  K. Khistyaev,  Jaehoon Kim,  P. Klunzinger,  K. Koh,
 D. Kosenkov,  L. Koulias,  T. Kowalczyk,  C. M. Krauter,  A. Kunitsa,
 Ka Un Lao,  A. Laurent,  K. V. Lawler,  Joonho Lee,  D. Lefrancois,
 S. Lehtola,  D. S. Levine,  Yi-Pei Li,  You-Sheng Lin,  Fenglai Liu,
 E. Livshits,  A. Luenser,  P. Manohar,  E. Mansoor,  S. F. Manzer,
 Shan-Ping Mao,  Yuezhi Mao,  N. Mardirossian,  A. V. Marenich,
 T. Markovich,  L. A. Martinez-Martinez,  S. A. Maurer,  N. J. Mayhall,
 S. C. McKenzie,  J.-M. Mewes,  A. F. Morrison,  J. W. Mullinax,  K. Nanda,
 T. S. Nguyen-Beck,  R. Olivares-Amaya,  J. A. Parkhill,  T. M. Perrine,
 F. Plasser,  P. Pokhilko,  S. Prager,  A. Prociuk,  E. Ramos,  D. R. Rehn,
 F. Rob,  M. Schneider,  N. Sergueev,  S. M. Sharada,  S. Sharma,
 D. W. Small,  T. Stauch,  T. Stein,  Yu-Chuan Su,  A. J. W. Thom,
 A. Tkatchenko,  T. Tsuchimochi,  N. M. Tubman,  L. Vogt,  M. L. Vidal,
 O. Vydrov,  M. A. Watson,  J. Wenzel,  M. de Wergifosse,  T. A. Wesolowski,
 A. White,  J. Witte,  A. Yamada,  Jun Yang,  K. Yao,  S. Yeganeh,
 S. R. Yost,  Zhi-Qiang You,  A. Zech,  Igor Ying Zhang,  Xing Zhang,
 Yan Zhao,  Ying Zhu,  B. R. Brooks,  G. K. L. Chan,  C. J. Cramer,
 M. S. Gordon,  W. J. Hehre,  A. Klamt,  M. W. Schmidt,  C. D. Sherrill,
 D. G. Truhlar,  A. Aspuru-Guzik,  R. Baer,  A. T. Bell,  N. A. Besley,
 Jeng-Da Chai,  R. A. DiStasio Jr.,  A. Dreuw,  B. D. Dunietz,
 T. R. Furlani,  Chao-Ping Hsu,  Yousung Jung,  Jing Kong,  D. S. Lambrecht,
 WanZhen Liang,  C. Ochsenfeld,  V. A. Rassolov,  L. V. Slipchenko,
 J. E. Subotnik,  T. Van Voorhis,  J. M. Herbert,  A. I. Krylov,
 P. M. W. Gill,  M. Head-Gordon

 Contributors to earlier versions of Q-Chem not listed above:
 R. D. Adamson,  B. Austin,  J. Baker,  G. J. O. Beran,  K. Brandhorst,
 S. T. Brown,  E. F. C. Byrd,  A. K. Chakraborty,  C.-L. Cheng,
 Siu Hung Chien,  D. M. Chipman,  D. L. Crittenden,  H. Dachsel,
 R. J. Doerksen,  A. D. Dutoi,  L. Fusti-Molnar,  W. A. Goddard III,
 A. Golubeva-Zadorozhnaya,  S. R. Gwaltney,  G. Hawkins,  A. Heyden,
 S. Hirata,  G. Kedziora,  F. J. Keil,  C. Kelley,  Jihan Kim,  R. A. King,
 R. Z. Khaliullin,  P. P. Korambath,  W. Kurlancheek,  A. M. Lee,  M. S. Lee,
 S. V. Levchenko,  Ching Yeh Lin,  D. Liotard,  R. C. Lochan,  I. Lotan,
 P. E. Maslen,  N. Nair,  D. P. O'Neill,  D. Neuhauser,  E. Neuscamman,
 C. M. Oana,  R. Olson,  B. Peters,  R. Peverati,  P. A. Pieniazek,
 Y. M. Rhee,  J. Ritchie,  M. A. Rohrdanz,  E. Rosta,  N. J. Russ,
 H. F. Schaefer III,  N. E. Schultz,  N. Shenvi,  A. C. Simmonett,  A. Sodt,
 D. Stuck,  K. S. Thanthiriwatte,  V. Vanovschi,  Tao Wang,  A. Warshel,
 C. F. Williams,  Q. Wu,  X. Xu,  W. Zhang

 Please cite Q-Chem as follows:
 Y. Shao et al., Mol. Phys. 113, 184-215 (2015)
 DOI: 10.1080/00268976.2014.952696

 Q-Chem 5.1.0 for Mac (Intel) OS X

 Parts of Q-Chem use Armadillo 8.300.2 (Tropical Shenanigans).
 http://arma.sourceforge.net/

 Q-Chem begins on Sun Sep 23 14:10:56 2018

Annas-MacBook-Pro-3.local
Host: 0

     Scratch files written to /scratch/qchem83093//
Processing $rem in /Users/annakrylov/.qchemrc.
CC_MEMORY  4000
Core orbitals will be frozen

Checking the input file for inconsistencies... 	...done.

--------------------------------------------------------------
User input:
--------------------------------------------------------------
$molecule
+1 2
 H        -2.1400320233    0.0000000000    0.5090177858
 C        -1.2120583232    0.0000000000   -0.0442490642
 C        -1.2042956497    0.0000000000   -1.4361358281
 H        -2.1437187877    0.0000000000   -1.9716770234
 C         0.0000000000    0.0000000000   -2.1351330277
 H         0.0000000000    0.0000000000   -3.2159870334
 C         1.2042956497    0.0000000000   -1.4361358281
 H         2.1437187877    0.0000000000   -1.9716770234
 C         1.2120583232    0.0000000000   -0.0442490642
 H         2.1400320233    0.0000000000    0.5090177858
 C         0.0000000000    0.0000000000    0.6386615242
 Cl        0.0000000000    0.0000000000    2.3695929760
$end

$rem
   JOB_TYPE  =  SP
   BASIS  =  aug-cc-pVDZ
   SCF_GUESS = read
   MOM_START = 1
   METHOD  =  EOM-CCSD
   CVS_EE_STATES = [5,0,5,5]   bright transitions only
!   CC_MEMORY = 80000
   cc_trans_prop = 1
$end

$occupied
1:29
1:27 29
$end

--------------------------------------------------------------

             Standard Nuclear Orientation (Angstroms)
    I     Atom           X                Y                Z
 ----------------------------------------------------------------
    1      H      -2.1400320233     0.0000000000     0.3814604176
    2      C      -1.2120583232     0.0000000000    -0.1718064324
    3      C      -1.2042956497     0.0000000000    -1.5636931963
    4      H      -2.1437187877     0.0000000000    -2.0992343916
    5      C      -0.0000000000     0.0000000000    -2.2626903959
    6      H      -0.0000000000     0.0000000000    -3.3435444016
    7      C       1.2042956497     0.0000000000    -1.5636931963
    8      H       2.1437187877     0.0000000000    -2.0992343916
    9      C       1.2120583232    -0.0000000000    -0.1718064324
   10      H       2.1400320233    -0.0000000000     0.3814604176
   11      C       0.0000000000    -0.0000000000     0.5111041560
   12      Cl      0.0000000000    -0.0000000000     2.2420356078
 ----------------------------------------------------------------

   17    -689.3469543621      8.09E-09 Convergence criterion met
 Total energy in the final basis set = -689.34695436
 CCSD total energy           = -690.29420031
        Solving for CVS-EOMEE-CCSD A1 transitions.
 EOMEE transition 1/A1
 Total energy = -682.79057674 a.u.  Excitation energy = 204.1840 eV.
 EOMEE transition 2/A1
 Total energy = -682.76458305 a.u.  Excitation energy = 204.8913 eV.
 EOMEE transition 3/A1
 Total energy = -682.74805654 a.u.  Excitation energy = 205.3410 eV.
 EOMEE transition 4/A1
 Total energy = -682.72435050 a.u.  Excitation energy = 205.9861 eV.
 EOMEE transition 5/A1
 Total energy = -682.66772281 a.u.  Excitation energy = 207.5270 eV.
        Solving for CVS-EOMEE-CCSD B1 transitions.
 EOMEE transition 1/B1
 Total energy = -682.90782860 a.u.  Excitation energy = 200.9934 eV.
 EOMEE transition 2/B1
 Total energy = -682.78815649 a.u.  Excitation energy = 204.2498 eV.
 EOMEE transition 3/B1
 Total energy = -682.78054497 a.u.  Excitation energy = 204.4570 eV.
 EOMEE transition 4/B1
 Total energy = -682.75359555 a.u.  Excitation energy = 205.1903 eV.
 EOMEE transition 5/B1
 Total energy = -682.69896894 a.u.  Excitation energy = 206.6768 eV.
        Solving for CVS-EOMEE-CCSD B2 transitions.
 EOMEE transition 1/B2
 Total energy = -682.90782108 a.u.  Excitation energy = 200.9936 eV.
 EOMEE transition 2/B2
 Total energy = -682.78797221 a.u.  Excitation energy = 204.2549 eV.
 EOMEE transition 3/B2
 Total energy = -682.78071964 a.u.  Excitation energy = 204.4522 eV.
 EOMEE transition 4/B2
 Total energy = -682.75312759 a.u.  Excitation energy = 205.2030 eV.
 EOMEE transition 5/B2
 Total energy = -682.74560543 a.u.  Excitation energy = 205.4077 eV.

             Orbital Energies (a.u.) and Symmetries
 --------------------------------------------------------------

 Alpha MOs, Unrestricted
 -- Occupied --
-105.01  -11.51  -11.51  -11.51  -11.51  -11.50  -11.45  -10.73
  1 A1    1 B1    2 A1    3 A1    2 B1    4 A1    5 A1    6 A1
 -8.203  -8.198  -8.198  -1.424  -1.320  -1.295  -1.208  -1.080
  7 A1    3 B1    1 B2    8 A1    9 A1    4 B1   10 A1    5 B1
 -1.049  -0.932  -0.880  -0.868  -0.840  -0.787  -0.776  -0.737
 11 A1   12 A1    6 B1   13 A1    7 B1   14 A1    2 B2    8 B1
 -0.721  -0.654  -0.635  -0.625  -0.535
 15 A1    3 B2    1 A2    9 B1    4 B2

 Beta MOs, Unrestricted
 -- Occupied --
-105.01  -11.51  -11.50  -11.50  -11.50  -11.50  -11.46  -10.73
  1 A1    2 A1    3 A1    1 B1    2 B1    4 A1    5 A1    6 A1
 -8.202  -8.199  -8.199  -1.405  -1.319  -1.242  -1.206  -1.060
  7 A1    1 B2    3 B1    8 A1    9 A1    4 B1   10 A1    5 B1
 -1.042  -0.928  -0.874  -0.863  -0.830  -0.788  -0.736  -0.722
 11 A1   12 A1    6 B1   13 A1    7 B1   14 A1    8 B1    2 B2
 -0.718  -0.639  -0.625  -0.547
 15 A1    3 B2    9 B1    4 B2

          Ground-State Mulliken Net Atomic Charges

     Atom                 Charge (a.u.)    Spin (a.u.)
  --------------------------------------------------------
      1 H                    -0.294838      -0.025001
      2 C                     0.368148       0.665470
      3 C                     0.850086       0.417439
      4 H                    -0.355527      -0.021772
      5 C                     0.391206      -0.416616
      6 H                    -0.371004       0.004168
      7 C                     0.850086       0.417439
      8 H                    -0.355527      -0.021772
      9 C                     0.368148       0.665470
     10 H                    -0.294838      -0.025001
     11 C                     0.095193      -0.646644
     12 Cl                   -0.251135      -0.013180
  --------------------------------------------------------
  Sum of atomic charges =     1.000000

                    Cartesian Multipole Moments
 -----------------------------------------------------------------
    Charge (ESU x 10^10)
                 4.8032
    Dipole Moment (Debye)
         X      -0.0000      Y       0.0000      Z      -5.1391
       Tot       5.1391
    Quadrupole Moments (Debye-Ang)
        XX     -28.6783     XY       0.0000     YY     -47.6789
        XZ       0.0000     YZ       0.0000     ZZ     -30.6041

 Total job time:  48695.09s(wall), 29114.12s(cpu)
        *  Thank you very much for using Q-Chem.  Have a nice day.  *
