 Q-Chem 5.1, Q-Chem, Inc., Pleasanton, CA (2018)
 Q-Chem 5.1.0 for Mac (Intel) OS X

User input:
--------------------------------------------------------------
$comment
Optimized Cl-Bz, XAS
$end

$molecule
+1 2
 H        -2.1400320233    0.0000000000    0.5090177858
 C        -1.2120583232    0.0000000000   -0.0442490642
 C        -1.2042956497    0.0000000000   -1.4361358281
 H        -2.1437187877    0.0000000000   -1.9716770234
 C         0.0000000000    0.0000000000   -2.1351330277
 H         0.0000000000    0.0000000000   -3.2159870334
 C         1.2042956497    0.0000000000   -1.4361358281
 H         2.1437187877    0.0000000000   -1.9716770234
 C         1.2120583232    0.0000000000   -0.0442490642
 H         2.1400320233    0.0000000000    0.5090177858
 C         0.0000000000    0.0000000000    0.6386615242
 Cl        0.0000000000    0.0000000000    2.3695929760
$end

$rem
   JOB_TYPE  =  SP
   BASIS  =  aug-cc-pVDZ
   METHOD  =  EOM-CCSD
   CVS_EE_STATES = [5,0,5,5]   bright transitions only
!   CC_MEMORY = 80000
   cc_trans_prop = 1
$end

--------------------------------------------------------------

             Standard Nuclear Orientation (Angstroms)
    I     Atom           X                Y                Z
 ----------------------------------------------------------------
    1      H      -2.1400320233     0.0000000000     0.3814604176
    2      C      -1.2120583232     0.0000000000    -0.1718064324
    3      C      -1.2042956497     0.0000000000    -1.5636931963
    4      H      -2.1437187877     0.0000000000    -2.0992343916
    5      C      -0.0000000000     0.0000000000    -2.2626903959
    6      H      -0.0000000000     0.0000000000    -3.3435444016
    7      C       1.2042956497     0.0000000000    -1.5636931963
    8      H       2.1437187877     0.0000000000    -2.0992343916
    9      C       1.2120583232    -0.0000000000    -0.1718064324
   10      H       2.1400320233    -0.0000000000     0.3814604176
   11      C       0.0000000000    -0.0000000000     0.5111041560
   12      Cl      0.0000000000    -0.0000000000     2.2420356078
 ----------------------------------------------------------------

   22    -689.3560198617      6.39e-09  Convergence criterion met
 CCSD total energy           = -690.31165756
        Solving for CVS-EOMEE-CCSD A1 transitions.
 EOMEE transition 1/A1
 Total energy = -682.93614789 a.u.  Excitation energy = 200.6978 eV.
 EOMEE transition 2/A1
 Total energy = -682.79427699 a.u.  Excitation energy = 204.5583 eV.
 EOMEE transition 3/A1
 Total energy = -682.76542368 a.u.  Excitation energy = 205.3435 eV.
 EOMEE transition 4/A1
 Total energy = -682.74713989 a.u.  Excitation energy = 205.8410 eV.
 EOMEE transition 5/A1
 Total energy = -682.69209543 a.u.  Excitation energy = 207.3388 eV.
        Solving for CVS-EOMEE-CCSD B1 transitions.
 EOMEE transition 1/B1
 Total energy = -682.79308525 a.u.  Excitation energy = 204.5908 eV.
 EOMEE transition 2/B1
 Total energy = -682.78151740 a.u.  Excitation energy = 204.9055 eV.
 EOMEE transition 3/B1
 Total energy = -682.68076037 a.u.  Excitation energy = 207.6473 eV.
 EOMEE transition 4/B1
 Total energy = -682.68062010 a.u.  Excitation energy = 207.6511 eV.
 EOMEE transition 5/B1
 Total energy = -682.65303822 a.u.  Excitation energy = 208.4016 eV.
        Solving for CVS-EOMEE-CCSD B2 transitions.
 EOMEE transition 1/B2
 Total energy = -682.93192985 a.u.  Excitation energy = 200.8126 eV.
 EOMEE transition 2/B2
 Total energy = -682.79098922 a.u.  Excitation energy = 204.6478 eV.
 EOMEE transition 3/B2
 Total energy = -682.78271119 a.u.  Excitation energy = 204.8731 eV.
 EOMEE transition 4/B2
 Total energy = -682.74751783 a.u.  Excitation energy = 205.8307 eV.
 EOMEE transition 5/B2
 Total energy = -682.68294458 a.u.  Excitation energy = 207.5878 eV.

             Orbital Energies (a.u.) and Symmetries
 --------------------------------------------------------------

 Alpha MOs, Unrestricted
 -- Occupied --
-105.06  -11.58  -11.49  -11.48  -11.48  -11.46  -11.46  -10.78
  1 A1    2 A1    3 A1    1 B1    4 A1    2 B1    5 A1    6 A1
 -8.251  -8.250  -8.247  -1.434  -1.345  -1.251  -1.239  -1.069
  1 B2    7 A1    3 B1    8 A1    9 A1    4 B1   10 A1    5 B1
 -1.041  -0.928  -0.873  -0.854  -0.813  -0.811  -0.790  -0.728
 11 A1   12 A1    6 B1   13 A1   14 A1    7 B1    2 B2    8 B1
 -0.723  -0.688  -0.661  -0.595  -0.562
 15 A1    3 B2    9 B1    4 B2    1 A2

 Beta MOs, Unrestricted
 -- Occupied --
-105.06  -11.57  -11.47  -11.47  -11.47  -11.47  -11.47  -10.78
  1 A1    2 A1    3 A1    1 B1    4 A1    2 B1    5 A1    6 A1
 -8.250  -8.246  -8.243  -1.407  -1.332  -1.249  -1.198  -1.062
  7 A1    3 B1    1 B2    8 A1    9 A1    4 B1   10 A1    5 B1
 -1.027  -0.921  -0.868  -0.848  -0.812  -0.804  -0.725  -0.722
 11 A1   12 A1    6 B1   13 A1    7 B1   14 A1    8 B1   15 A1
 -0.708  -0.658  -0.638  -0.567
  2 B2    9 B1    3 B2    1 A2

          Ground-State Mulliken Net Atomic Charges

     Atom                 Charge (a.u.)    Spin (a.u.)
  --------------------------------------------------------
      1 H                    -0.314534      -0.026167
      2 C                     0.464787       0.427905
      3 C                     0.950374      -0.606766
      4 H                    -0.371884       0.004773
      5 C                     0.170087       0.941879
      6 H                    -0.355201      -0.030338
      7 C                     0.950374      -0.606766
      8 H                    -0.371884       0.004773
      9 C                     0.464787       0.427905
     10 H                    -0.314534      -0.026167
     11 C                    -0.163359       0.350920
     12 Cl                   -0.109013       0.138050
  --------------------------------------------------------
  Sum of atomic charges =     1.000000

                    Cartesian Multipole Moments
 -----------------------------------------------------------------
    Charge (ESU x 10^10)
                 4.8032
    Dipole Moment (Debye)
         X      -0.0000      Y       0.0000      Z      -3.3892
       Tot       3.3892
    Quadrupole Moments (Debye-Ang)
        XX     -33.2671     XY       0.0000     YY     -47.7786
        XZ       0.0000     YZ       0.0000     ZZ     -25.2074

 Total job time:  35877.85s(wall), 38257.56s(cpu)
        *  Thank you very much for using Q-Chem.  Have a nice day.  *
