 Q-Chem 5.1, Q-Chem, Inc., Pleasanton, CA (2018)
 Q-Chem 5.1.1 for Intel X86 EM64T Linux

User input:
--------------------------------------------------------------
$comment
Optimized Cl-Bz cation, B2 state, XAS of the cation
$end

$molecule
+1 2
H        -2.1651573376    0.0000000000    0.3879499861
C        -1.2470507240    0.0000000000   -0.1801247700
C        -1.2361338652    0.0000000000   -1.5492083889
H        -2.1609781249    0.0000000000   -2.1059158595
C         0.0000000000    0.0000000000   -2.2400161949
H         0.0000000000    0.0000000000   -3.3212297746
C         1.2361338652    0.0000000000   -1.5492083889
H         2.1609781249    0.0000000000   -2.1059158595
C         1.2470507240    0.0000000000   -0.1801247700
H         2.1651573376    0.0000000000    0.3879499861
C         0.0000000000    0.0000000000    0.5119321622
Cl        0.0000000000    0.0000000000    2.1842696329
$end

$rem
   JOB_TYPE  =  SP
   BASIS  =  general
   METHOD  =  EOM-CCSD
   CVS_EE_STATES = [5,0,4,5]   bright transitions only
   CC_MEMORY = 100000
   cc_trans_prop = 1
   EOM_DAVIDSON_MAXVECTORS = 120
   eom_shift = 07277  198 eV
$end

$basis
H    0
S    3    1.000000
   3.38650000E+01    2.54938000E-02
   5.09479000E+00    1.90373000E-01
   1.15879000E+00    8.52161000E-01
S    1    1.000000
   3.25840000E-01    1.00000000E+00
S    1    1.000000
   1.02741000E-01    1.00000000E+00
S    1    1.000000
   3.60000000E-02    1.00000000E+00
P    1    1.000000
   7.50000000E-01    1.00000000E+00
****
C    0
S    1    1.000000
   4.56324000E+03    1.96665000E-03
S    1    1.000000
   6.82024000E+02    1.52306000E-02
S    1    1.000000
   1.54973000E+02    7.61269000E-02
S    1    1.000000
   4.44553000E+01    2.60801000E-01
S    1    1.000000
   1.30290000E+01    6.16462000E-01
S    1    1.000000
   1.82773000E+00    2.21006000E-01
SP   3    1.000000
   2.09642000E+01    1.14660000E-01   4.02487000E-02
   4.80331000E+00    9.19999000E-01   2.37594000E-01
   1.45933000E+00   -3.03068000E-03   8.15854000E-01
SP   1    1.000000
   4.83456000E-01    1.00000000E+00   1.00000000E+00
SP   1    1.000000
   1.45585000E-01    1.00000000E+00   1.00000000E+00
SP   1    1.000000
   4.38000000E-02    1.00000000E+00   1.00000000E+00
SP   1    1.000000
   1.31927711E-02    1.00000000E+00   1.00000000E+00
D    1    1.000000
   6.26000000E-01    1.00000000E+00
****
Cl   0
S    1    1.000000
   1.05819000E+05    7.38000000E-04
S    1    1.000000
   1.58720000E+04    5.71800000E-03
S    1    1.000000
   3.61965000E+03    2.94950000E-02
S    1    1.000000
   1.03080000E+03    1.17286000E-01
S    1    1.000000
   3.39908000E+02    3.62949000E-01
S    1    1.000000
   1.24538000E+02    5.84149000E-01
S    3    1.000000
   1.24538000E+02    1.34177000E-01
   4.95135000E+01    6.24250000E-01
   2.08056000E+01    2.91756000E-01
S    1    1.000000
   6.58346000E+00    1.00000000E+00
S    1    1.000000
   2.56468000E+00    1.00000000E+00
S    1    1.000000
   5.59763000E-01    1.00000000E+00
S    1    1.000000
   1.83273000E-01    1.00000000E+00
P    1    1.000000
   5.89776000E+02    2.39100000E-03
P    1    1.000000
   1.39849000E+02    1.85040000E-02
P    1    1.000000
   4.51413000E+01    8.13770000E-02
P    1    1.000000
   1.68733000E+01    2.21552000E-01
P    1    1.000000
   6.74110000E+00    7.72569000E-01
P    2    1.000000
   6.74110000E+00   -1.57224400E+00
   2.77152000E+00    9.92389000E-01
P    1    1.000000
   1.02387000E+00    1.00000000E+00
P    1    1.000000
   3.81368000E-01    1.00000000E+00
P    1    1.000000
   1.09437000E-01    1.00000000E+00
SP   1    1.000000
   4.83000000E-02    1.00000000E+00   1.00000000E+00
SP   1    1.000000
   1.45481928E-02    1.00000000E+00   1.00000000E+00
D    1    1.000000
   7.50000000E-01    1.00000000E+00
****
$end

--------------------------------------------------------------

             Standard Nuclear Orientation (Angstroms)
    I     Atom           X                Y                Z
 ----------------------------------------------------------------
    1      H      -2.1651573376     0.0000000000     0.4007961907
    2      C      -1.2470507240     0.0000000000    -0.1672785654
    3      C      -1.2361338652    -0.0000000000    -1.5363621843
    4      H      -2.1609781249    -0.0000000000    -2.0930696549
    5      C       0.0000000000    -0.0000000000    -2.2271699903
    6      H       0.0000000000    -0.0000000000    -3.3083835700
    7      C       1.2361338652    -0.0000000000    -1.5363621843
    8      H       2.1609781249    -0.0000000000    -2.0930696549
    9      C       1.2470507240    -0.0000000000    -0.1672785654
   10      H       2.1651573376    -0.0000000000     0.4007961907
   11      C      -0.0000000000     0.0000000000     0.5247783668
   12      Cl     -0.0000000000     0.0000000000     2.1971158375
 ----------------------------------------------------------------

   30    -689.3935654654      7.08e-09  Convergence criterion met
 Total energy in the final basis set =     -689.3935654654
 CCSD total energy           = -690.36843851
        Solving for CVS-EOMEE-CCSD A1 transitions.
 EOMEE transition 1/A1
 Total energy = -683.08646567 a.u.  Excitation energy = 198.1526 eV.
 EOMEE transition 2/A1
 Total energy = -682.93259945 a.u.  Excitation energy = 202.3395 eV.
 EOMEE transition 3/A1
 Total energy = -682.91753869 a.u.  Excitation energy = 202.7493 eV.
 EOMEE transition 4/A1
 Total energy = -682.90025590 a.u.  Excitation energy = 203.2196 eV.
 EOMEE transition 5/A1
 Total energy = -682.85350490 a.u.  Excitation energy = 204.4917 eV.
        Solving for CVS-EOMEE-CCSD B1 transitions.
 EOMEE transition 1/B1
 Total energy = -682.93189066 a.u.  Excitation energy = 202.3588 eV.
 EOMEE transition 2/B1
 Total energy = -682.91996350 a.u.  Excitation energy = 202.6833 eV.
 EOMEE transition 3/B1
 Total energy = -682.82712016 a.u.  Excitation energy = 205.2097 eV.
 EOMEE transition 4/B1
 Total energy = -682.81434846 a.u.  Excitation energy = 205.5572 eV.
        Solving for CVS-EOMEE-CCSD B2 transitions.
 EOMEE transition 1/B2
 Total energy = -683.08082479 a.u.  Excitation energy = 198.3061 eV.
 EOMEE transition 2/B2
 Total energy = -682.92954734 a.u.  Excitation energy = 202.4225 eV.
 EOMEE transition 3/B2
 Total energy = -682.92080532 a.u.  Excitation energy = 202.6604 eV.
 EOMEE transition 4/B2
 Total energy = -682.91517649 a.u.  Excitation energy = 202.8136 eV.
 EOMEE transition 5/B2
 Total energy = -682.84657453 a.u.  Excitation energy = 204.6803 eV.

             Orbital Energies (a.u.) and Symmetries
 --------------------------------------------------------------

 Alpha MOs, Unrestricted
 -- Occupied --
-105.06  -11.58  -11.49  -11.48  -11.48  -11.46  -11.46  -10.79
  1 A1    2 A1    3 A1    1 B1    4 A1    2 B1    5 A1    6 A1
 -8.254  -8.253  -8.250  -1.435  -1.348  -1.254  -1.224  -1.061
  1 B2    7 A1    3 B1    8 A1    9 A1    4 B1   10 A1    5 B1
 -1.042  -0.925  -0.870  -0.860  -0.820  -0.808  -0.788  -0.731
 11 A1   12 A1    6 B1   13 A1    7 B1   14 A1    2 B2   15 A1
 -0.727  -0.690  -0.662  -0.583  -0.567
  8 B1    3 B2    9 B1    4 B2    1 A2

 Beta MOs, Unrestricted
 -- Occupied --
-105.06  -11.57  -11.47  -11.47  -11.47  -11.46  -11.46  -10.78
  1 A1    2 A1    3 A1    1 B1    4 A1    2 B1    5 A1    6 A1
 -8.253  -8.249  -8.246  -1.411  -1.336  -1.254  -1.181  -1.054
  7 A1    3 B1    1 B2    8 A1    9 A1    4 B1   10 A1    5 B1
 -1.027  -0.918  -0.865  -0.854  -0.820  -0.799  -0.729  -0.723
 11 A1   12 A1    6 B1   13 A1    7 B1   14 A1   15 A1    8 B1
 -0.713  -0.657  -0.638  -0.574
  2 B2    9 B1    3 B2    1 A2

          Ground-State Mulliken Net Atomic Charges

     Atom                 Charge (a.u.)    Spin (a.u.)
  --------------------------------------------------------
      1 H                     0.276719      -0.029397
      2 C                    -0.388713       0.246569
      3 C                    -0.310677      -0.409893
      4 H                     0.310055       0.019671
      5 C                    -0.207344       0.821267
      6 H                     0.285419      -0.050632
      7 C                    -0.310677      -0.409893
      8 H                     0.310055       0.019671
      9 C                    -0.388713       0.246569
     10 H                     0.276719      -0.029397
     11 C                     0.269627       0.445314
     12 Cl                    0.877530       0.130151
  --------------------------------------------------------
  Sum of atomic charges =     1.000000

                    Cartesian Multipole Moments
 -----------------------------------------------------------------
    Charge (ESU x 10^10)
                 4.8032
    Dipole Moment (Debye)
         X      -0.0000      Y      -0.0000      Z      -3.1775
       Tot       3.1775
    Quadrupole Moments (Debye-Ang)
        XX     -33.1018     XY       0.0000     YY     -47.6749
        XZ       0.0000     YZ       0.0000     ZZ     -26.0865

 Total job time:  11528.83s(wall), 79650.55s(cpu)
        *  Thank you very much for using Q-Chem.  Have a nice day.  *
