 Q-Chem 5.1, Q-Chem, Inc., Pleasanton, CA (2018)
 Q-Chem 5.1.0 for Mac (Intel) OS X

User input:
--------------------------------------------------------------
$comment
Optimized Cl-Bz, XAS
$end

$molecule
0 1
 H        -2.1400320233    0.0000000000    0.5090177858
 C        -1.2120583232    0.0000000000   -0.0442490642
 C        -1.2042956497    0.0000000000   -1.4361358281
 H        -2.1437187877    0.0000000000   -1.9716770234
 C         0.0000000000    0.0000000000   -2.1351330277
 H         0.0000000000    0.0000000000   -3.2159870334
 C         1.2042956497    0.0000000000   -1.4361358281
 H         2.1437187877    0.0000000000   -1.9716770234
 C         1.2120583232    0.0000000000   -0.0442490642
 H         2.1400320233    0.0000000000    0.5090177858
 C         0.0000000000    0.0000000000    0.6386615242
 Cl        0.0000000000    0.0000000000    2.3695929760
$end

$rem
   JOB_TYPE  =  SP
   BASIS  =  aug-cc-pVDZ
   METHOD  =  EOM-CCSD
   CVS_EE_STATES = [6,0,6,6]
!   CC_MEMORY = 80000
   cc_trans_prop = 1
$end

--------------------------------------------------------------

             Standard Nuclear Orientation (Angstroms)
    I     Atom           X                Y                Z
 ----------------------------------------------------------------
    1      H      -2.1400320233     0.0000000000     0.3814604176
    2      C      -1.2120583232     0.0000000000    -0.1718064324
    3      C      -1.2042956497     0.0000000000    -1.5636931963
    4      H      -2.1437187877     0.0000000000    -2.0992343916
    5      C      -0.0000000000     0.0000000000    -2.2626903959
    6      H      -0.0000000000     0.0000000000    -3.3435444016
    7      C       1.2042956497     0.0000000000    -1.5636931963
    8      H       2.1437187877     0.0000000000    -2.0992343916
    9      C       1.2120583232    -0.0000000000    -0.1718064324
   10      H       2.1400320233    -0.0000000000     0.3814604176
   11      C       0.0000000000    -0.0000000000     0.5111041560
   12      Cl      0.0000000000    -0.0000000000     2.2420356078
 ----------------------------------------------------------------

   14    -689.6504920618      7.77e-09  Convergence criterion met
 CCSD total energy           = -690.64469443
 EOMEE transition 1/A1
 Total energy = -683.10525309 a.u.  Excitation energy = 205.1586 eV.
 EOMEE transition 2/A1
 Total energy = -683.05852316 a.u.  Excitation energy = 206.4302 eV.
 EOMEE transition 3/A1
 Total energy = -683.05150585 a.u.  Excitation energy = 206.6212 eV.
 EOMEE transition 4/A1
 Total energy = -683.02136982 a.u.  Excitation energy = 207.4412 eV.
 EOMEE transition 5/A1
 Total energy = -683.00277353 a.u.  Excitation energy = 207.9472 eV.
 EOMEE transition 6/A1
 Total energy = -682.99612048 a.u.  Excitation energy = 208.1283 eV.
 EOMEE transition 1/B1
 Total energy = -683.11745897 a.u.  Excitation energy = 204.8265 eV.
 EOMEE transition 2/B1
 Total energy = -683.05665599 a.u.  Excitation energy = 206.4810 eV.
 EOMEE transition 3/B1
 Total energy = -683.03631333 a.u.  Excitation energy = 207.0346 eV.
 EOMEE transition 4/B1
 Total energy = -683.01839929 a.u.  Excitation energy = 207.5220 eV.
 EOMEE transition 5/B1
 Total energy = -683.00694360 a.u.  Excitation energy = 207.8338 eV.
 EOMEE transition 6/B1
 Total energy = -682.98770099 a.u.  Excitation energy = 208.3574 eV.
 EOMEE transition 1/B2
 Total energy = -683.11743949 a.u.  Excitation energy = 204.8270 eV.
 EOMEE transition 2/B2
 Total energy = -683.05694652 a.u.  Excitation energy = 206.4731 eV.
 EOMEE transition 3/B2
 Total energy = -683.05645311 a.u.  Excitation energy = 206.4865 eV.
 EOMEE transition 4/B2
 Total energy = -683.03611101 a.u.  Excitation energy = 207.0401 eV.
 EOMEE transition 5/B2
 Total energy = -683.00713594 a.u.  Excitation energy = 207.8285 eV.
 EOMEE transition 6/B2
 Total energy = -682.99534277 a.u.  Excitation energy = 208.1494 eV.

             Orbital Energies (a.u.) and Symmetries
 --------------------------------------------------------------

 Alpha MOs, Restricted
 -- Occupied --
-104.84  -11.31  -11.26  -11.26  -11.26  -11.26  -11.25  -10.57
  1 A1    2 A1    3 A1    1 B1    4 A1    2 B1    5 A1    6 A1
 -8.034  -8.031  -8.031  -1.197  -1.125  -1.036  -1.001  -0.850
  7 A1    3 B1    1 B2    8 A1    9 A1    4 B1   10 A1    5 B1
 -0.823  -0.714  -0.651  -0.650  -0.606  -0.592  -0.547  -0.518
 11 A1   12 A1   13 A1    6 B1    7 B1   14 A1    2 B2    8 B1
 -0.514  -0.471  -0.456  -0.353  -0.337
 15 A1    3 B2    9 B1    1 A2    4 B2

 Beta MOs, Restricted
 -- Occupied --
-104.84  -11.31  -11.26  -11.26  -11.26  -11.26  -11.25  -10.57
  1 A1    2 A1    3 A1    1 B1    4 A1    2 B1    5 A1    6 A1
 -8.034  -8.031  -8.031  -1.197  -1.125  -1.036  -1.001  -0.850
  7 A1    3 B1    1 B2    8 A1    9 A1    4 B1   10 A1    5 B1
 -0.823  -0.714  -0.651  -0.650  -0.606  -0.592  -0.547  -0.518
 11 A1   12 A1   13 A1    6 B1    7 B1   14 A1    2 B2    8 B1
 -0.514  -0.471  -0.456  -0.353  -0.337
 15 A1    3 B2    9 B1    1 A2    4 B2

          Ground-State Mulliken Net Atomic Charges

     Atom                 Charge (a.u.)
  ----------------------------------------
      1 H                    -0.379532
      2 C                     0.345778
      3 C                     0.859269
      4 H                    -0.436504
      5 C                     0.179903
      6 H                    -0.435122
      7 C                     0.859269
      8 H                    -0.436504
      9 C                     0.345778
     10 H                    -0.379532
     11 C                    -0.148751
     12 Cl                   -0.374052
  ----------------------------------------
  Sum of atomic charges =    -0.000000

                    Cartesian Multipole Moments
 -----------------------------------------------------------------
    Charge (ESU x 10^10)
                -0.0000
    Dipole Moment (Debye)
         X      -0.0000      Y       0.0000      Z      -1.9374
       Tot       1.9374
    Quadrupole Moments (Debye-Ang)
        XX     -42.4715     XY       0.0000     YY     -52.7233
        XZ       0.0000     YZ       0.0000     ZZ     -46.6114

 Total job time:  12192.92s(wall), 16580.76s(cpu)
        *  Thank you very much for using Q-Chem.  Have a nice day.  *
