 Q-Chem 5.1, Q-Chem, Inc., Pleasanton, CA (2018)
 Q-Chem 5.1.1 for Intel X86 EM64T Linux

User input:
--------------------------------------------------------------
$molecule
0 1
  H    2.1527918    1.2429149    0.0000000
  C    1.2047582    0.6955675    0.0000000
  C    1.2047582   -0.6955675    0.0000000
  H    2.1527918   -1.2429149    0.0000000
  C   -0.0000000   -1.3911349   -0.0000000
  H   -0.0000000   -2.4858298   -0.0000000
  C   -1.2047582   -0.6955675   -0.0000000
  H   -2.1527918   -1.2429149   -0.0000000
  C   -1.2047582    0.6955675   -0.0000000
  H   -2.1527918    1.2429149   -0.0000000
  C    0.0000000    1.3911349    0.0000000
  H    0.0000000    2.4858298    0.0000000
$end

$rem
   AUXILIARY_BASIS  =  RIMP2-cc-PVTZ
   BASIS  =  cc-pVTZ
   JOB_TYPE  =  Optimization
   METHOD  =  RI-MP2
   SCF_CONVERGENCE  =  8
   n_frozen_core = FC
$end

--------------------------------------------------------------

   10    -230.7781058652      2.08e-09  Convergence criterion met
 Total energy in the final basis set =     -230.7781058652
        RIMP2         total energy =      -231.7285464419 a.u.
    8    -230.7795270707      9.64e-10  Convergence criterion met
 Total energy in the final basis set =     -230.7795270707
        RIMP2         total energy =      -231.7293512180 a.u.

             Standard Nuclear Orientation (Angstroms)
    I     Atom           X                Y                Z
 ----------------------------------------------------------------
    1      H       2.4750347531     0.0000000000     0.0000000000
    2      C       1.3935929418     0.0000000000     0.0000000000
    3      C       0.6967964709     1.2068868901     0.0000000000
    4      H       1.2375173766     2.1434429715     0.0000000000
    5      C      -0.6967964709     1.2068868901     0.0000000000
    6      H      -1.2375173766     2.1434429715     0.0000000000
    7      C      -1.3935929418     0.0000000000     0.0000000000
    8      H      -2.4750347531     0.0000000000     0.0000000000
    9      C      -0.6967964709    -1.2068868901     0.0000000000
   10      H      -1.2375173766    -2.1434429715     0.0000000000
   11      C       0.6967964709    -1.2068868901     0.0000000000
   12      H       1.2375173766    -2.1434429715     0.0000000000
 ----------------------------------------------------------------

    6    -230.7795081428      2.21e-09  Convergence criterion met
 Total energy in the final basis set =     -230.7795081428
        RIMP2         total energy =      -231.7293516078 a.u.
 Final energy is   -231.72935160777308
 **  OPTIMIZATION CONVERGED  **

             Orbital Energies (a.u.) and Symmetries
 --------------------------------------------------------------

 Alpha MOs, Restricted
 -- Occupied --
-11.234 -11.233 -11.233 -11.232 -11.232 -11.232  -1.148  -1.013
  1 A1g   1 E1u   1 E1u   1 E2g   1 E2g   1 B1u   2 A1g   2 E1u
 -1.013  -0.822  -0.822  -0.708  -0.643  -0.617  -0.586  -0.586
  2 E1u   2 E2g   2 E2g   3 A1g   2 B1u   1 B2u   3 E1u   3 E1u
 -0.501  -0.493  -0.493  -0.335  -0.335
  1 A2u   3 E2g   3 E2g   1 E1g   1 E1g

 Beta MOs, Restricted
 -- Occupied --
-11.234 -11.233 -11.233 -11.232 -11.232 -11.232  -1.148  -1.013
  1 A1g   1 E1u   1 E1u   1 E2g   1 E2g   1 B1u   2 A1g   2 E1u
 -1.013  -0.822  -0.822  -0.708  -0.643  -0.617  -0.586  -0.586
  2 E1u   2 E2g   2 E2g   3 A1g   2 B1u   1 B2u   3 E1u   3 E1u
 -0.501  -0.493  -0.493  -0.335  -0.335
  1 A2u   3 E2g   3 E2g   1 E1g   1 E1g

          Ground-State Mulliken Net Atomic Charges

     Atom                 Charge (a.u.)
  ----------------------------------------
      1 H                     0.151403
      2 C                    -0.151403
      3 C                    -0.151403
      4 H                     0.151403
      5 C                    -0.151403
      6 H                     0.151403
      7 C                    -0.151403
      8 H                     0.151403
      9 C                    -0.151403
     10 H                     0.151403
     11 C                    -0.151403
     12 H                     0.151403
  ----------------------------------------
  Sum of atomic charges =     0.000000

                    Cartesian Multipole Moments
 -----------------------------------------------------------------
    Charge (ESU x 10^10)
                 0.0000
    Dipole Moment (Debye)
         X      -0.0000      Y       0.0000      Z      -0.0000
       Tot       0.0000
    Quadrupole Moments (Debye-Ang)
        XX     -32.1368     XY       0.0000     YY     -32.1368
        XZ       0.0000     YZ       0.0000     ZZ     -39.9777

 Total job time:  1199.03s(wall), 4730.04s(cpu)
        *  Thank you very much for using Q-Chem.  Have a nice day.  *
