 Q-Chem 5.1, Q-Chem, Inc., Pleasanton, CA (2018)
 Q-Chem 5.1.1 for Intel X86 EM64T Linux

User input:
--------------------------------------------------------------
$comment
RI-MP2/cc-pVTZ optimized geometry. EOM-IP calculations.
$end

$molecule
0 1
    H         2.4750347531    0.0000000000    0.0000000000
    C         1.3935929418    0.0000000000    0.0000000000
    C         0.6967964709    1.2068868901    0.0000000000
    H         1.2375173766    2.1434429715    0.0000000000
    C        -0.6967964709    1.2068868901    0.0000000000
    H        -1.2375173766    2.1434429715    0.0000000000
    C        -1.3935929418    0.0000000000    0.0000000000
    H        -2.4750347531    0.0000000000    0.0000000000
    C        -0.6967964709   -1.2068868901    0.0000000000
    H        -1.2375173766   -2.1434429715    0.0000000000
    C         0.6967964709   -1.2068868901    0.0000000000
    H         1.2375173766   -2.1434429715    0.0000000000
$end

$rem
   JOB_TYPE  =  SP
   BASIS  =  cc-pVTZ
   METHOD  =  EOM-CCSD
   IP_STATES = [2,2,2,2,2,2,2,2]
   CC_MEMORY = 80000
! use SP code
  cc_single_prec=1
  eom_single_prec=1
  cc_sp_dm = 1
  cc_sp_t_conv = 4
  cc_sp_e_conv = 6
  cc_erase_dp_integrals = 1
$end

--------------------------------------------------------------

             Standard Nuclear Orientation (Angstroms)
    I     Atom           X                Y                Z
 ----------------------------------------------------------------
    1      H       2.4750347531     0.0000000000    -0.0000000000
    2      C       1.3935929418     0.0000000000    -0.0000000000
    3      C       0.6967964709     1.2068868901     0.0000000000
    4      H       1.2375173766     2.1434429715     0.0000000000
    5      C      -0.6967964709     1.2068868901     0.0000000000
    6      H      -1.2375173766     2.1434429715     0.0000000000
    7      C      -1.3935929418     0.0000000000     0.0000000000
    8      H      -2.4750347531     0.0000000000     0.0000000000
    9      C      -0.6967964709    -1.2068868901    -0.0000000000
   10      H      -1.2375173766    -2.1434429715    -0.0000000000
   11      C       0.6967964709    -1.2068868901    -0.0000000000
   12      H       1.2375173766    -2.1434429715    -0.0000000000
 ----------------------------------------------------------------

   10    -230.7795081426      2.04e-09  Convergence criterion met
 Total energy in the final basis set =     -230.7795081426
 CCSD total energy           = -231.75391686
        Solving for EOMIP-CCSD Ag transitions.
 EOMIP transition 1/Ag
 Total energy = -231.30676602 a.u.  Excitation energy = 12.1676 eV.
 EOMIP transition 2/Ag
 Total energy = -231.11445957 a.u.  Excitation energy = 17.4005 eV.
        Solving for EOMIP-CCSD B1g transitions.
 EOMIP transition 1/B1g
 Total energy = -231.30678334 a.u.  Excitation energy = 12.1671 eV.
 EOMIP transition 2/B1g
 Total energy = -231.03207574 a.u.  Excitation energy = 19.6423 eV.
        Solving for EOMIP-CCSD B2g transitions.
 EOMIP transition 1/B2g
 Total energy = -231.41183958 a.u.  Excitation energy = 9.3084 eV.
 EOMIP transition 2/B2g
 Total energy = -231.39819126 a.u.  Excitation energy = 9.6798 eV.
        Solving for EOMIP-CCSD B3g transitions.
 EOMIP transition 1/B3g
 Total energy = -231.41183962 a.u.  Excitation energy = 9.3084 eV.
 EOMIP transition 2/B3g
 Total energy = -231.01236812 a.u.  Excitation energy = 20.1786 eV.
        Solving for EOMIP-CCSD Au transitions.
 EOMIP transition 1/Au
 Total energy = -231.09851392 a.u.  Excitation energy = 17.8344 eV.
 EOMIP transition 2/Au
 Total energy = -231.07769734 a.u.  Excitation energy = 18.4009 eV.
        Solving for EOMIP-CCSD B1u transitions.
 EOMIP transition 1/B1u
 Total energy = -231.28927245 a.u.  Excitation energy = 12.6436 eV.
 EOMIP transition 2/B1u
 Total energy = -231.07771170 a.u.  Excitation energy = 18.4005 eV.
        Solving for EOMIP-CCSD B2u transitions.
 EOMIP transition 1/B2u
 Total energy = -231.22342993 a.u.  Excitation energy = 14.4353 eV.
 EOMIP transition 2/B2u
 Total energy = -231.20776165 a.u.  Excitation energy = 14.8616 eV.
        Solving for EOMIP-CCSD B3u transitions.
 EOMIP transition 1/B3u
 Total energy = -231.22342998 a.u.  Excitation energy = 14.4353 eV.
 EOMIP transition 2/B3u
 Total energy = -231.17090549 a.u.  Excitation energy = 15.8645 eV.

             Orbital Energies (a.u.) and Symmetries
 --------------------------------------------------------------

 Alpha MOs, Restricted
 -- Occupied --
-11.234 -11.233 -11.233 -11.232 -11.232 -11.232  -1.148  -1.013
  1 Ag    1 B3u   1 B2u   2 Ag    1 B1g   2 B3u   3 Ag    3 B3u
 -1.013  -0.822  -0.822  -0.708  -0.643  -0.617  -0.586  -0.586
  2 B2u   4 Ag    2 B1g   5 Ag    4 B3u   3 B2u   5 B3u   4 B2u
 -0.501  -0.493  -0.493  -0.335  -0.335
  1 B1u   6 Ag    3 B1g   1 B2g   1 B3g

 Beta MOs, Restricted
 -- Occupied --
-11.234 -11.233 -11.233 -11.232 -11.232 -11.232  -1.148  -1.013
  1 Ag    1 B3u   1 B2u   2 Ag    1 B1g   2 B3u   3 Ag    3 B3u
 -1.013  -0.822  -0.822  -0.708  -0.643  -0.617  -0.586  -0.586
  2 B2u   4 Ag    2 B1g   5 Ag    4 B3u   3 B2u   5 B3u   4 B2u
 -0.501  -0.493  -0.493  -0.335  -0.335
  1 B1u   6 Ag    3 B1g   1 B2g   1 B3g

          Ground-State Mulliken Net Atomic Charges

     Atom                 Charge (a.u.)
  ----------------------------------------
      1 H                     0.151946
      2 C                    -0.151946
      3 C                    -0.151946
      4 H                     0.151946
      5 C                    -0.151946
      6 H                     0.151946
      7 C                    -0.151946
      8 H                     0.151946
      9 C                    -0.151946
     10 H                     0.151946
     11 C                    -0.151946
     12 H                     0.151946
  ----------------------------------------
  Sum of atomic charges =    -0.000000

                    Cartesian Multipole Moments
 -----------------------------------------------------------------
    Charge (ESU x 10^10)
                -0.0000
    Dipole Moment (Debye)
         X       0.0000      Y       0.0000      Z       0.0000
       Tot       0.0000
    Quadrupole Moments (Debye-Ang)
        XX     -31.7708     XY      -0.0000     YY     -31.7708
        XZ       0.0000     YZ      -0.0000     ZZ     -40.6101

 Total job time:  370.61s(wall), 1760.30s(cpu)
        *  Thank you very much for using Q-Chem.  Have a nice day.  *
