 Q-Chem 5.1, Q-Chem, Inc., Pleasanton, CA (2018)
 Q-Chem 5.1.1 for Intel X86 EM64T Linux

User input:
--------------------------------------------------------------
$comment
RI-MP2/cc-pVTZ optimized geometry. EOM-IP calculations.
$end

$molecule
0 1
    H         2.4750347531    0.0000000000    0.0000000000
    C         1.3935929418    0.0000000000    0.0000000000
    C         0.6967964709    1.2068868901    0.0000000000
    H         1.2375173766    2.1434429715    0.0000000000
    C        -0.6967964709    1.2068868901    0.0000000000
    H        -1.2375173766    2.1434429715    0.0000000000
    C        -1.3935929418    0.0000000000    0.0000000000
    H        -2.4750347531    0.0000000000    0.0000000000
    C        -0.6967964709   -1.2068868901    0.0000000000
    H        -1.2375173766   -2.1434429715    0.0000000000
    C         0.6967964709   -1.2068868901    0.0000000000
    H         1.2375173766   -2.1434429715    0.0000000000
$end

$rem
   JOB_TYPE  =  SP
   BASIS  =  6-311(2+,+)G**
   METHOD  =  EOM-CCSD
   EE_STATES = [0,0,0,0,2,2,2,2] only bright transitions
   CC_MEMORY = 80000
   cc_trans_prop = 1
! use SP code
  cc_single_prec=1
  eom_single_prec=1
  cc_sp_dm = 1
  cc_sp_t_conv = 4
  cc_sp_e_conv = 6
  cc_erase_dp_integrals = 1
$end

--------------------------------------------------------------

             Standard Nuclear Orientation (Angstroms)
    I     Atom           X                Y                Z
 ----------------------------------------------------------------
    1      H       2.4750347531     0.0000000000    -0.0000000000
    2      C       1.3935929418     0.0000000000    -0.0000000000
    3      C       0.6967964709     1.2068868901     0.0000000000
    4      H       1.2375173766     2.1434429715     0.0000000000
    5      C      -0.6967964709     1.2068868901     0.0000000000
    6      H      -1.2375173766     2.1434429715     0.0000000000
    7      C      -1.3935929418     0.0000000000     0.0000000000
    8      H      -2.4750347531     0.0000000000     0.0000000000
    9      C      -0.6967964709    -1.2068868901    -0.0000000000
   10      H      -1.2375173766    -2.1434429715    -0.0000000000
   11      C       0.6967964709    -1.2068868901    -0.0000000000
   12      H       1.2375173766    -2.1434429715    -0.0000000000
 ----------------------------------------------------------------

   10    -230.7564457567      2.53e-09  Convergence criterion met
 Total energy in the final basis set =     -230.7564457567
 CCSD total energy           = -231.61824203
 EOMEE transition 1/Au
 Total energy = -231.35946358 a.u.  Excitation energy = 7.0417 eV.
 EOMEE transition 2/Au
 Total energy = -231.35605952 a.u.  Excitation energy = 7.1343 eV.
 EOMEE transition 1/B1u
 Total energy = -231.36219988 a.u.  Excitation energy = 6.9673 eV.
 EOMEE transition 2/B1u
 Total energy = -231.35946348 a.u.  Excitation energy = 7.0417 eV.
 EOMEE transition 1/B2u
 Total energy = -231.42677932 a.u.  Excitation energy = 5.2100 eV.
 EOMEE transition 2/B2u
 Total energy = -231.35519062 a.u.  Excitation energy = 7.1580 eV.
 EOMEE transition 1/B3u
 Total energy = -231.37428116 a.u.  Excitation energy = 6.6385 eV.
 EOMEE transition 2/B3u
 Total energy = -231.35519032 a.u.  Excitation energy = 7.1580 eV.

             Orbital Energies (a.u.) and Symmetries
 --------------------------------------------------------------

 Alpha MOs, Restricted
 -- Occupied --
-11.238 -11.238 -11.238 -11.236 -11.236 -11.236  -1.153  -1.017
  1 Ag    1 B3u   1 B2u   2 Ag    1 B1g   2 B3u   3 Ag    3 B3u
 -1.017  -0.826  -0.826  -0.712  -0.645  -0.621  -0.590  -0.590
  2 B2u   4 Ag    2 B1g   5 Ag    4 B3u   3 B2u   5 B3u   4 B2u
 -0.502  -0.496  -0.496  -0.337  -0.337
  1 B1u   6 Ag    3 B1g   1 B2g   1 B3g

 Beta MOs, Restricted
 -- Occupied --
-11.238 -11.238 -11.238 -11.236 -11.236 -11.236  -1.153  -1.017
  1 Ag    1 B3u   1 B2u   2 Ag    1 B1g   2 B3u   3 Ag    3 B3u
 -1.017  -0.826  -0.826  -0.712  -0.645  -0.621  -0.590  -0.590
  2 B2u   4 Ag    2 B1g   5 Ag    4 B3u   3 B2u   5 B3u   4 B2u
 -0.502  -0.496  -0.496  -0.337  -0.337
  1 B1u   6 Ag    3 B1g   1 B2g   1 B3g

          Ground-State Mulliken Net Atomic Charges

     Atom                 Charge (a.u.)
  ----------------------------------------
      1 H                     0.198875
      2 C                    -0.198875
      3 C                    -0.198875
      4 H                     0.198875
      5 C                    -0.198875
      6 H                     0.198875
      7 C                    -0.198875
      8 H                     0.198875
      9 C                    -0.198875
     10 H                     0.198875
     11 C                    -0.198875
     12 H                     0.198875
  ----------------------------------------
  Sum of atomic charges =     0.000000

                    Cartesian Multipole Moments
 -----------------------------------------------------------------
    Charge (ESU x 10^10)
                 0.0000
    Dipole Moment (Debye)
         X      -0.0000      Y       0.0000      Z       0.0000
       Tot       0.0000
    Quadrupole Moments (Debye-Ang)
        XX     -31.9213     XY      -0.0000     YY     -31.9213
        XZ       0.0000     YZ       0.0000     ZZ     -41.3018

 Total job time:  509.00s(wall), 2291.70s(cpu)
        *  Thank you very much for using Q-Chem.  Have a nice day.  *
