 Q-Chem 5.1, Q-Chem, Inc., Pleasanton, CA (2018)
 Q-Chem 5.1.0 for Intel X86 EM64T Linux

User input:
--------------------------------------------------------------
$commen
RI-MP2/cc-pVTZ optimized geometry.
TR-NEXAFS
basis = 6-311(2+,+)G** (ucC)
$end

$molecule
0 1
H       2.4750347531     0.0000000000    -0.0000000000
C       1.3935929418     0.0000000000    -0.0000000000
C       0.6967964709     1.2068868901     0.0000000000
H       1.2375173766     2.1434429715     0.0000000000
C      -0.6967964709     1.2068868901     0.0000000000
H      -1.2375173766     2.1434429715     0.0000000000
C      -1.3935929418    -0.0000000000     0.0000000000
H      -2.4750347531    -0.0000000000     0.0000000000
C      -0.6967964709    -1.2068868901    -0.0000000000
H      -1.2375173766    -2.1434429715    -0.0000000000
C       0.6967964709    -1.2068868901    -0.0000000000
H       1.2375173766    -2.1434429715    -0.0000000000
$end

$rem
   JOB_TYPE  =  SP
   BASIS  =  general
   METHOD  =  EOM-CCSD
   CVS_EE_STATES = [5,5,5,5,5,5,5,5]
   EE_STATES = [0,0,0,0,0,3,3,3]
   eom_preconv_singles = true
   n_frozen_core = fc
   cc_trans_prop = 2
   use_libqints = 1   !use new int library (will be def in trunk)
   cc_memory = 100000
   EOM_DAVIDSON_MAX_ITER 200
   EOM_DAVIDSON_MAXVECTORS = 1000
   eom_davidson_convergence = 5
   !eom_shift = 10000
$end

$basis
H    0
6-311(2+,+)G**
****
C    0
S    1    1.000000
   4.56324000E+03    1.96665000E-03
S    1    1.000000
   6.82024000E+02    1.52306000E-02
S    1    1.000000
   1.54973000E+02    7.61269000E-02
S    1    1.000000
   4.44553000E+01    2.60801000E-01
S    1    1.000000
   1.30290000E+01    6.16462000E-01
S    1    1.000000
   1.82773000E+00    2.21006000E-01
SP   3    1.000000
   2.09642000E+01    1.14660000E-01   4.02487000E-02
   4.80331000E+00    9.19999000E-01   2.37594000E-01
   1.45933000E+00   -3.03068000E-03   8.15854000E-01
SP   1    1.000000
   4.83456000E-01    1.00000000E+00   1.00000000E+00
SP   1    1.000000
   1.45585000E-01    1.00000000E+00   1.00000000E+00
SP   1    1.000000
   4.38000000E-02    1.00000000E+00   1.00000000E+00
SP   1    1.000000
   1.31927711E-02    1.00000000E+00   1.00000000E+00
D    1    1.000000
   6.26000000E-01    1.00000000E+00
****
end

--------------------------------------------------------------

             Standard Nuclear Orientation (Angstroms)
    I     Atom           X                Y                Z
 ----------------------------------------------------------------
    1      H       2.4750347531     0.0000000000    -0.0000000000
    2      C       1.3935929418     0.0000000000    -0.0000000000
    3      C       0.6967964709     1.2068868901     0.0000000000
    4      H       1.2375173766     2.1434429715     0.0000000000
    5      C      -0.6967964709     1.2068868901     0.0000000000
    6      H      -1.2375173766     2.1434429715     0.0000000000
    7      C      -1.3935929418    -0.0000000000     0.0000000000
    8      H      -2.4750347531    -0.0000000000     0.0000000000
    9      C      -0.6967964709    -1.2068868901    -0.0000000000
   10      H      -1.2375173766    -2.1434429715    -0.0000000000
   11      C       0.6967964709    -1.2068868901    -0.0000000000
   12      H       1.2375173766    -2.1434429715    -0.0000000000
 ----------------------------------------------------------------

   14    -230.7568474146      3.00e-09  Convergence criterion met
 CCSD total energy           = -231.62421954
 EOMEE transition 1/B1u
 Total energy = -231.28722891 a.u.  Excitation energy = 9.1700 eV.
 EOMEE transition 2/B1u
 Total energy = -231.28101254 a.u.  Excitation energy = 9.3391 eV.
 EOMEE transition 3/B1u
 Total energy = -231.23643025 a.u.  Excitation energy = 10.5523 eV.
 EOMEE transition 1/B1u
 Total energy = -231.36817076 a.u.  Excitation energy = 6.9674 eV.
 EOMEE transition 2/B1u
 Total energy = -231.36543346 a.u.  Excitation energy = 7.0419 eV.
 EOMEE transition 3/B1u
 Total energy = -231.31657273 a.u.  Excitation energy = 8.3715 eV.
 EOMEE transition 1/B2u
 Total energy = -231.28243284 a.u.  Excitation energy = 9.3005 eV.
 EOMEE transition 2/B2u
 Total energy = -231.27917592 a.u.  Excitation energy = 9.3891 eV.
 EOMEE transition 3/B2u
 Total energy = -231.24078811 a.u.  Excitation energy = 10.4337 eV.
 EOMEE transition 1/B2u
 Total energy = -231.43278021 a.u.  Excitation energy = 5.2093 eV.
 EOMEE transition 2/B2u
 Total energy = -231.36115160 a.u.  Excitation energy = 7.1584 eV.
 EOMEE transition 3/B2u
 Total energy = -231.34577197 a.u.  Excitation energy = 7.5769 eV.
 EOMEE transition 1/B3u
 Total energy = -231.28060716 a.u.  Excitation energy = 9.3502 eV.
 EOMEE transition 2/B3u
 EOMEE transition 3/B3u
 EOMEE transition 1/B3u
 EOMEE transition 2/B3u
 EOMEE transition 3/B3u
 EOMEE transition 1/Ag
 EOMEE transition 2/Ag
 EOMEE transition 3/Ag
 EOMEE transition 4/Ag
 EOMEE transition 5/Ag
 EOMEE transition 1/B1g
 EOMEE transition 2/B1g
 EOMEE transition 3/B1g
 EOMEE transition 4/B1g
 EOMEE transition 5/B1g
 EOMEE transition 1/B2g
 EOMEE transition 2/B2g
 EOMEE transition 3/B2g
 EOMEE transition 4/B2g
 EOMEE transition 5/B2g
 EOMEE transition 1/B3g
 EOMEE transition 2/B3g
 EOMEE transition 3/B3g
 EOMEE transition 4/B3g
 EOMEE transition 5/B3g
 EOMEE transition 1/Au
 EOMEE transition 2/Au
 EOMEE transition 3/Au
 EOMEE transition 4/Au
 EOMEE transition 5/Au
 EOMEE transition 1/B1u
 Total energy = -221.11537058 a.u.  Excitation energy = 285.9603 eV.
 EOMEE transition 2/B1u
 Total energy = -221.11501153 a.u.  Excitation energy = 285.9701 eV.
 EOMEE transition 3/B1u
 Total energy = -221.05767900 a.u.  Excitation energy = 287.5302 eV.
 EOMEE transition 4/B1u
 Total energy = -221.00888199 a.u.  Excitation energy = 288.8580 eV.
 EOMEE transition 5/B1u
 Total energy = -221.00687589 a.u.  Excitation energy = 288.9126 eV.
 EOMEE transition 1/B2u
 Total energy = -221.04785775 a.u.  Excitation energy = 287.7974 eV.
 EOMEE transition 2/B2u
 Total energy = -221.01179813 a.u.  Excitation energy = 288.7787 eV.
 EOMEE transition 3/B2u
 Total energy = -221.01154677 a.u.  Excitation energy = 288.7855 eV.
 EOMEE transition 4/B2u
 Total energy = -221.00988587 a.u.  Excitation energy = 288.8307 eV.
 EOMEE transition 5/B2u
 Total energy = -220.99092610 a.u.  Excitation energy = 289.3466 eV.
 EOMEE transition 1/B3u
 Total energy = -221.04961180 a.u.  Excitation energy = 287.7497 eV.
 EOMEE transition 2/B3u
 Total energy = -221.04785486 a.u.  Excitation energy = 287.7975 eV.
 EOMEE transition 3/B3u
 Total energy = -221.01169658 a.u.  Excitation energy = 288.7814 eV.
 EOMEE transition 4/B3u
 Total energy = -221.01154906 a.u.  Excitation energy = 288.7855 eV.
 EOMEE transition 5/B3u
 Total energy = -221.00986987 a.u.  Excitation energy = 288.8311 eV.

             Orbital Energies (a.u.) and Symmetries
 --------------------------------------------------------------

 Alpha MOs, Restricted
 -- Occupied --
-11.239 -11.239 -11.239 -11.237 -11.237 -11.237  -1.153  -1.017
  1 Ag    1 B3u   1 B2u   2 Ag    1 B1g   2 B3u   3 Ag    3 B3u
 -1.017  -0.826  -0.826  -0.712  -0.645  -0.621  -0.590  -0.590
  2 B2u   4 Ag    2 B1g   5 Ag    4 B3u   3 B2u   5 B3u   4 B2u
 -0.502  -0.496  -0.496  -0.337  -0.337
  1 B1u   6 Ag    3 B1g   1 B2g   1 B3g

 Beta MOs, Restricted
 -- Occupied --
-11.239 -11.239 -11.239 -11.237 -11.237 -11.237  -1.153  -1.017
  1 Ag    1 B3u   1 B2u   2 Ag    1 B1g   2 B3u   3 Ag    3 B3u
 -1.017  -0.826  -0.826  -0.712  -0.645  -0.621  -0.590  -0.590
  2 B2u   4 Ag    2 B1g   5 Ag    4 B3u   3 B2u   5 B3u   4 B2u
 -0.502  -0.496  -0.496  -0.337  -0.337
  1 B1u   6 Ag    3 B1g   1 B2g   1 B3g

          Ground-State Mulliken Net Atomic Charges

     Atom                 Charge (a.u.)
  ----------------------------------------
      1 H                     0.192118
      2 C                    -0.192118
      3 C                    -0.192118
      4 H                     0.192118
      5 C                    -0.192118
      6 H                     0.192118
      7 C                    -0.192118
      8 H                     0.192118
      9 C                    -0.192118
     10 H                     0.192118
     11 C                    -0.192118
     12 H                     0.192118
  ----------------------------------------
  Sum of atomic charges =    -0.000000

                    Cartesian Multipole Moments
 -----------------------------------------------------------------
    Charge (ESU x 10^10)
                 0.0000
    Dipole Moment (Debye)
         X      -0.0000      Y      -0.0000      Z      -0.0000
       Tot       0.0000
    Quadrupole Moments (Debye-Ang)
        XX     -31.9206     XY      -0.0000     YY     -31.9206
        XZ      -0.0000     YZ      -0.0000     ZZ     -41.2888

 Total job time:  14825.16s(wall), 90557.88s(cpu)
        *  Thank you very much for using Q-Chem.  Have a nice day.  *
