 Q-Chem 5.1, Q-Chem, Inc., Pleasanton, CA (2018)
 Q-Chem 5.1.0 for Intel X86 EM64T Linux

User input:
--------------------------------------------------------------
$commen
RI-MP2/cc-pVTZ optimized geometry.
TR-NEXAFS
basis = 6-311(2+,+)G** (ucC)
$end

$molecule
0 1
H       2.4750347531     0.0000000000    -0.0000000000
C       1.3935929418     0.0000000000    -0.0000000000
C       0.6967964709     1.2068868901     0.0000000000
H       1.2375173766     2.1434429715     0.0000000000
C      -0.6967964709     1.2068868901     0.0000000000
H      -1.2375173766     2.1434429715     0.0000000000
C      -1.3935929418    -0.0000000000     0.0000000000
H      -2.4750347531    -0.0000000000     0.0000000000
C      -0.6967964709    -1.2068868901    -0.0000000000
H      -1.2375173766    -2.1434429715    -0.0000000000
C       0.6967964709    -1.2068868901    -0.0000000000
H       1.2375173766    -2.1434429715    -0.0000000000
$end

$rem
   JOB_TYPE  =  SP
   BASIS  =  general
   METHOD  =  EOM-CCSD
   CVS_EE_STATES = [10,10,10,10,0,0,0,0]
   EE_STATES = [0,0,0,0,0,0,3,0]
   eom_preconv_singles = true
   n_frozen_core = fc
   cc_trans_prop = 1
   use_libqints = 1   !use new int library (will be def in trunk)
   cc_memory = 100000
   EOM_DAVIDSON_MAX_ITER 200
   EOM_DAVIDSON_MAXVECTORS = 1000
   eom_davidson_convergence = 5
   !eom_shift = 10000
$end

$basis
H    0
6-311(2+,+)G**
****
C    0
S    1    1.000000
   4.56324000E+03    1.96665000E-03
S    1    1.000000
   6.82024000E+02    1.52306000E-02
S    1    1.000000
   1.54973000E+02    7.61269000E-02
S    1    1.000000
   4.44553000E+01    2.60801000E-01
S    1    1.000000
   1.30290000E+01    6.16462000E-01
S    1    1.000000
   1.82773000E+00    2.21006000E-01
SP   3    1.000000
   2.09642000E+01    1.14660000E-01   4.02487000E-02
   4.80331000E+00    9.19999000E-01   2.37594000E-01
   1.45933000E+00   -3.03068000E-03   8.15854000E-01
SP   1    1.000000
   4.83456000E-01    1.00000000E+00   1.00000000E+00
SP   1    1.000000
   1.45585000E-01    1.00000000E+00   1.00000000E+00
SP   1    1.000000
   4.38000000E-02    1.00000000E+00   1.00000000E+00
SP   1    1.000000
   1.31927711E-02    1.00000000E+00   1.00000000E+00
D    1    1.000000
   6.26000000E-01    1.00000000E+00
****
end

$trans_prop
state_list
ee_singlets 7 1
cvs_ee_singlets 1 1
cvs_ee_singlets 1 2
cvs_ee_singlets 1 3
cvs_ee_singlets 1 4
cvs_ee_singlets 1 5
cvs_ee_singlets 1 6
cvs_ee_singlets 1 7
cvs_ee_singlets 1 8
cvs_ee_singlets 1 9
cvs_ee_singlets 1 10
cvs_ee_singlets 2 1
cvs_ee_singlets 2 2
cvs_ee_singlets 2 3
cvs_ee_singlets 2 4
cvs_ee_singlets 2 5
cvs_ee_singlets 2 6
cvs_ee_singlets 2 7
cvs_ee_singlets 2 8
cvs_ee_singlets 2 9
cvs_ee_singlets 2 10
cvs_ee_singlets 3 1
cvs_ee_singlets 3 2
cvs_ee_singlets 3 3
cvs_ee_singlets 3 4
cvs_ee_singlets 3 5
cvs_ee_singlets 3 6
cvs_ee_singlets 3 7
cvs_ee_singlets 3 8
cvs_ee_singlets 3 9
cvs_ee_singlets 3 10
cvs_ee_singlets 4 1
cvs_ee_singlets 4 2
cvs_ee_singlets 4 3
cvs_ee_singlets 4 4
cvs_ee_singlets 4 5
cvs_ee_singlets 4 6
cvs_ee_singlets 4 7
cvs_ee_singlets 4 8
cvs_ee_singlets 4 9
cvs_ee_singlets 4 10
end_list
tate_pair_list
1 2
1 3
1 4
1 5
1 6
1 7
1 8
1 9
1 10
1 11
1 12
1 13
1 14
1 15
1 16
1 17
1 18
1 19
1 20
1 21
1 22
1 23
1 24
1 25
1 26
1 27
1 28
1 29
1 30
1 31
1 32
1 33
1 34
1 35
1 36
1 37
1 38
1 39
1 40
1 41
end_pairs
calc default
$end

--------------------------------------------------------------

             Standard Nuclear Orientation (Angstroms)
    I     Atom           X                Y                Z
 ----------------------------------------------------------------
    1      H       2.4750347531     0.0000000000    -0.0000000000
    2      C       1.3935929418     0.0000000000    -0.0000000000
    3      C       0.6967964709     1.2068868901     0.0000000000
    4      H       1.2375173766     2.1434429715     0.0000000000
    5      C      -0.6967964709     1.2068868901     0.0000000000
    6      H      -1.2375173766     2.1434429715     0.0000000000
    7      C      -1.3935929418    -0.0000000000     0.0000000000
    8      H      -2.4750347531    -0.0000000000     0.0000000000
    9      C      -0.6967964709    -1.2068868901    -0.0000000000
   10      H      -1.2375173766    -2.1434429715    -0.0000000000
   11      C       0.6967964709    -1.2068868901    -0.0000000000
   12      H       1.2375173766    -2.1434429715    -0.0000000000
 ----------------------------------------------------------------

   14    -230.7568474146      3.00e-09  Convergence criterion met
 CCSD total energy           = -231.62421954
 EOMEE transition 1/B2u
 Total energy = -231.28243284 a.u.  Excitation energy = 9.3005 eV.
 EOMEE transition 2/B2u
 Total energy = -231.27917592 a.u.  Excitation energy = 9.3891 eV.
 EOMEE transition 3/B2u
 Total energy = -231.24078811 a.u.  Excitation energy = 10.4337 eV.
 EOMEE transition 1/B2u
 Total energy = -231.43278021 a.u.  Excitation energy = 5.2093 eV.
 EOMEE transition 2/B2u
 Total energy = -231.36115160 a.u.  Excitation energy = 7.1584 eV.
 EOMEE transition 3/B2u
 Total energy = -231.34577197 a.u.  Excitation energy = 7.5769 eV.
 EOMEE transition 1/Ag
 Total energy = -221.04904468 a.u.  Excitation energy = 287.7651 eV.
 EOMEE transition 2/Ag
 Total energy = -221.04719132 a.u.  Excitation energy = 287.8156 eV.
 EOMEE transition 3/Ag
 Total energy = -221.01216301 a.u.  Excitation energy = 288.7687 eV.
 EOMEE transition 4/Ag
 Total energy = -221.01063884 a.u.  Excitation energy = 288.8102 eV.
 EOMEE transition 5/Ag
 Total energy = -221.00986380 a.u.  Excitation energy = 288.8313 eV.
 EOMEE transition 6/Ag
 Total energy = -220.99221323 a.u.  Excitation energy = 289.3116 eV.
 EOMEE transition 7/Ag
 Total energy = -220.99036653 a.u.  Excitation energy = 289.3619 eV.
 EOMEE transition 8/Ag
 EOMEE transition 9/Ag
 EOMEE transition 10/Ag
 EOMEE transition 1/B1g
 EOMEE transition 2/B1g
 EOMEE transition 3/B1g
 EOMEE transition 4/B1g
 EOMEE transition 5/B1g
 EOMEE transition 6/B1g
 EOMEE transition 7/B1g
 EOMEE transition 8/B1g
 EOMEE transition 9/B1g
 EOMEE transition 10/B1g
 EOMEE transition 1/B2g
 EOMEE transition 2/B2g
 EOMEE transition 3/B2g
 EOMEE transition 4/B2g
 EOMEE transition 5/B2g
 EOMEE transition 6/B2g
 Total energy = -220.98100581 a.u.  Excitation energy = 289.6166 eV.
 EOMEE transition 7/B2g
 Total energy = -220.98084040 a.u.  Excitation energy = 289.6211 eV.
 EOMEE transition 8/B2g
 Total energy = -220.97894874 a.u.  Excitation energy = 289.6726 eV.
 EOMEE transition 9/B2g
 Total energy = -220.95677289 a.u.  Excitation energy = 290.2760 eV.
 EOMEE transition 10/B2g
 Total energy = -220.95519676 a.u.  Excitation energy = 290.3189 eV.
 EOMEE transition 1/B3g
 Total energy = -221.11537379 a.u.  Excitation energy = 285.9602 eV.
 EOMEE transition 2/B3g
 Total energy = -221.05839269 a.u.  Excitation energy = 287.5108 eV.
 EOMEE transition 3/B3g
 Total energy = -221.05726908 a.u.  Excitation energy = 287.5413 eV.
 EOMEE transition 4/B3g
 Total energy = -221.00751120 a.u.  Excitation energy = 288.8953 eV.
 EOMEE transition 5/B3g
 Total energy = -220.98123332 a.u.  Excitation energy = 289.6104 eV.
 EOMEE transition 6/B3g
 Total energy = -220.98100775 a.u.  Excitation energy = 289.6165 eV.
 EOMEE transition 7/B3g
 Total energy = -220.97894752 a.u.  Excitation energy = 289.6726 eV.
 EOMEE transition 8/B3g
 Total energy = -220.95678463 a.u.  Excitation energy = 290.2757 eV.
 EOMEE transition 9/B3g
 Total energy = -220.95413701 a.u.  Excitation energy = 290.3477 eV.
 EOMEE transition 10/B3g
 Total energy = -220.95367688 a.u.  Excitation energy = 290.3602 eV.

             Orbital Energies (a.u.) and Symmetries
 --------------------------------------------------------------

 Alpha MOs, Restricted
 -- Occupied --
-11.239 -11.239 -11.239 -11.237 -11.237 -11.237  -1.153  -1.017
  1 Ag    1 B3u   1 B2u   2 Ag    1 B1g   2 B3u   3 Ag    3 B3u
 -1.017  -0.826  -0.826  -0.712  -0.645  -0.621  -0.590  -0.590
  2 B2u   4 Ag    2 B1g   5 Ag    4 B3u   3 B2u   5 B3u   4 B2u
 -0.502  -0.496  -0.496  -0.337  -0.337
  1 B1u   6 Ag    3 B1g   1 B2g   1 B3g

 Beta MOs, Restricted
 -- Occupied --
-11.239 -11.239 -11.239 -11.237 -11.237 -11.237  -1.153  -1.017
  1 Ag    1 B3u   1 B2u   2 Ag    1 B1g   2 B3u   3 Ag    3 B3u
 -1.017  -0.826  -0.826  -0.712  -0.645  -0.621  -0.590  -0.590
  2 B2u   4 Ag    2 B1g   5 Ag    4 B3u   3 B2u   5 B3u   4 B2u
 -0.502  -0.496  -0.496  -0.337  -0.337
  1 B1u   6 Ag    3 B1g   1 B2g   1 B3g

          Ground-State Mulliken Net Atomic Charges

     Atom                 Charge (a.u.)
  ----------------------------------------
      1 H                     0.192118
      2 C                    -0.192118
      3 C                    -0.192118
      4 H                     0.192118
      5 C                    -0.192118
      6 H                     0.192118
      7 C                    -0.192118
      8 H                     0.192118
      9 C                    -0.192118
     10 H                     0.192118
     11 C                    -0.192118
     12 H                     0.192118
  ----------------------------------------
  Sum of atomic charges =    -0.000000

                    Cartesian Multipole Moments
 -----------------------------------------------------------------
    Charge (ESU x 10^10)
                 0.0000
    Dipole Moment (Debye)
         X      -0.0000      Y       0.0000      Z      -0.0000
       Tot       0.0000
    Quadrupole Moments (Debye-Ang)
        XX     -31.9206     XY      -0.0000     YY     -31.9206
        XZ       0.0000     YZ      -0.0000     ZZ     -41.2888

 Total job time:  18541.21s(wall), 119230.42s(cpu)
        *  Thank you very much for using Q-Chem.  Have a nice day.  *
