 Q-Chem 5.1, Q-Chem, Inc., Pleasanton, CA (2018)
 Q-Chem 5.1.1 for Intel X86 EM64T Linux

User input:
--------------------------------------------------------------
$comment
EOM-CCSD/cc-pVTZ optimized geometry for B2 cation
NEXAFS
basis = 6-311(2+,+)G** (ucC)
$end

$molecule
+1 2
H        -2.1651573376    0.0000000000    0.3879499861
C        -1.2470507240    0.0000000000   -0.1801247700
C        -1.2361338652    0.0000000000   -1.5492083889
H        -2.1609781249    0.0000000000   -2.1059158595
C         0.0000000000    0.0000000000   -2.2400161949
H         0.0000000000    0.0000000000   -3.3212297746
C         1.2361338652    0.0000000000   -1.5492083889
H         2.1609781249    0.0000000000   -2.1059158595
C         1.2470507240    0.0000000000   -0.1801247700
H         2.1651573376    0.0000000000    0.3879499861
C         0.0000000000    0.0000000000    0.5119321622
Cl        0.0000000000    0.0000000000    2.1842696329
$end

$rem
   JOB_TYPE  =  SP
   BASIS  =  general
   METHOD  =  EOM-CCSD
   CVS_EE_STATES = [10,10,10,10]
   eom_preconv_singles = true
   n_frozen_core = fc
   cc_trans_prop = true
   use_libqints = 1   !use new int library (will be def in trunk)
   cc_memory = 100000
   EOM_DAVIDSON_MAX_ITER 200
   EOM_DAVIDSON_MAXVECTORS = 1000
   eom_davidson_convergence = 4
$end

$basis
H    0
6-311(2+,+)G**
****
Cl   0
6-311(2+,+)G**
****
C    0
S    1    1.000000
   4.56324000E+03    1.96665000E-03
S    1    1.000000
   6.82024000E+02    1.52306000E-02
S    1    1.000000
   1.54973000E+02    7.61269000E-02
S    1    1.000000
   4.44553000E+01    2.60801000E-01
S    1    1.000000
   1.30290000E+01    6.16462000E-01
S    1    1.000000
   1.82773000E+00    2.21006000E-01
SP   3    1.000000
   2.09642000E+01    1.14660000E-01   4.02487000E-02
   4.80331000E+00    9.19999000E-01   2.37594000E-01
   1.45933000E+00   -3.03068000E-03   8.15854000E-01
SP   1    1.000000
   4.83456000E-01    1.00000000E+00   1.00000000E+00
SP   1    1.000000
   1.45585000E-01    1.00000000E+00   1.00000000E+00
SP   1    1.000000
   4.38000000E-02    1.00000000E+00   1.00000000E+00
SP   1    1.000000
   1.31927711E-02    1.00000000E+00   1.00000000E+00
D    1    1.000000
   6.26000000E-01    1.00000000E+00
****
end

--------------------------------------------------------------

             Standard Nuclear Orientation (Angstroms)
    I     Atom           X                Y                Z
 ----------------------------------------------------------------
    1      H      -2.1651573376     0.0000000000     0.4007961907
    2      C      -1.2470507240     0.0000000000    -0.1672785654
    3      C      -1.2361338652    -0.0000000000    -1.5363621843
    4      H      -2.1609781249    -0.0000000000    -2.0930696549
    5      C       0.0000000000    -0.0000000000    -2.2271699903
    6      H       0.0000000000    -0.0000000000    -3.3083835700
    7      C       1.2361338652    -0.0000000000    -1.5363621843
    8      H       2.1609781249    -0.0000000000    -2.0930696549
    9      C       1.2470507240    -0.0000000000    -0.1672785654
   10      H       2.1651573376    -0.0000000000     0.4007961907
   11      C      -0.0000000000     0.0000000000     0.5247783668
   12      Cl     -0.0000000000     0.0000000000     2.1971158375
 ----------------------------------------------------------------

   24    -689.3631664808      8.29e-09  Convergence criterion met
 Total energy in the final basis set =     -689.3631664808
 CCSD total energy           = -690.33000826
        Solving for CVS-EOMEE-CCSD A1 transitions.
 EOMEE transition 1/A1
 Total energy = -682.87467172 a.u.  Excitation energy = 202.8700 eV.
 EOMEE transition 2/A1
 Total energy = -682.86627677 a.u.  Excitation energy = 203.0985 eV.
 EOMEE transition 3/A1
 Total energy = -682.84670160 a.u.  Excitation energy = 203.6311 eV.
 EOMEE transition 4/A1
 Total energy = -682.83640996 a.u.  Excitation energy = 203.9112 eV.
 EOMEE transition 5/A1
 Total energy = -682.77506405 a.u.  Excitation energy = 205.5805 eV.
 EOMEE transition 6/A1
 Total energy = -682.77277241 a.u.  Excitation energy = 205.6428 eV.
 EOMEE transition 7/A1
 Total energy = -682.73578883 a.u.  Excitation energy = 206.6492 eV.
 EOMEE transition 8/A1
 Total energy = -682.73337895 a.u.  Excitation energy = 206.7148 eV.
 EOMEE transition 9/A1
 Total energy = -682.73098712 a.u.  Excitation energy = 206.7799 eV.
 EOMEE transition 10/A1
 Total energy = -682.72682718 a.u.  Excitation energy = 206.8931 eV.
        Solving for CVS-EOMEE-CCSD A2 transitions.
 EOMEE transition 1/A2
 Total energy = -683.01344607 a.u.  Excitation energy = 199.0938 eV.
 EOMEE transition 2/A2
 Total energy = -682.86522666 a.u.  Excitation energy = 203.1270 eV.
 EOMEE transition 3/A2
 EOMEE transition 4/A2
 EOMEE transition 5/A2
 EOMEE transition 6/A2
 EOMEE transition 7/A2
 EOMEE transition 8/A2
 EOMEE transition 9/A2
 EOMEE transition 10/A2
        Solving for CVS-EOMEE-CCSD B1 transitions.
 EOMEE transition 1/B1
 EOMEE transition 2/B1
 EOMEE transition 3/B1
 EOMEE transition 4/B1
 EOMEE transition 5/B1
 EOMEE transition 6/B1
 Total energy = -682.78026261 a.u.  Excitation energy = 205.4390 eV.
 EOMEE transition 7/B1
 Total energy = -682.77863283 a.u.  Excitation energy = 205.4834 eV.
 EOMEE transition 8/B1
 Total energy = -682.72990072 a.u.  Excitation energy = 206.8094 eV.
 EOMEE transition 9/B1
 Total energy = -682.72914984 a.u.  Excitation energy = 206.8299 eV.
 EOMEE transition 10/B1
 Total energy = -682.72853688 a.u.  Excitation energy = 206.8466 eV.
        Solving for CVS-EOMEE-CCSD B2 transitions.
 EOMEE transition 1/B2
 Total energy = -683.01794141 a.u.  Excitation energy = 198.9715 eV.
 EOMEE transition 2/B2
 Total energy = -682.87282403 a.u.  Excitation energy = 202.9203 eV.
 EOMEE transition 3/B2
 Total energy = -682.86454470 a.u.  Excitation energy = 203.1456 eV.
 EOMEE transition 4/B2
 Total energy = -682.86102772 a.u.  Excitation energy = 203.2413 eV.
 EOMEE transition 5/B2
 Total energy = -682.85397777 a.u.  Excitation energy = 203.4331 eV.
 EOMEE transition 6/B2
 Total energy = -682.83395028 a.u.  Excitation energy = 203.9781 eV.
 EOMEE transition 7/B2
 Total energy = -682.79722577 a.u.  Excitation energy = 204.9774 eV.
 EOMEE transition 8/B2
 Total energy = -682.78081802 a.u.  Excitation energy = 205.4239 eV.
 EOMEE transition 9/B2
 Total energy = -682.77866643 a.u.  Excitation energy = 205.4825 eV.
 EOMEE transition 10/B2
 Total energy = -682.73051632 a.u.  Excitation energy = 206.7927 eV.

             Orbital Energies (a.u.) and Symmetries
 --------------------------------------------------------------

 Alpha MOs, Unrestricted
 -- Occupied --
-105.01  -11.51  -11.51  -11.51  -11.50  -11.50  -11.45  -10.74
  1 A1    1 B1    2 A1    3 A1    2 B1    4 A1    5 A1    6 A1
 -8.205  -8.200  -8.199  -1.421  -1.330  -1.303  -1.195  -1.073
  7 A1    3 B1    1 B2    8 A1    9 A1    4 B1   10 A1    5 B1
 -1.047  -0.930  -0.878  -0.870  -0.849  -0.783  -0.774  -0.735
 11 A1   12 A1    6 B1   13 A1    7 B1   14 A1    2 B2    8 B1
 -0.732  -0.657  -0.646  -0.626  -0.521
 15 A1    3 B2    1 A2    9 B1    4 B2

 Beta MOs, Unrestricted
 -- Occupied --
-105.01  -11.52  -11.50  -11.50  -11.49  -11.49  -11.46  -10.74
  1 A1    2 A1    3 A1    1 B1    2 B1    4 A1    5 A1    6 A1
 -8.204  -8.201  -8.201  -1.404  -1.325  -1.247  -1.192  -1.052
  7 A1    1 B2    3 B1    8 A1    9 A1    4 B1   10 A1    5 B1
 -1.043  -0.926  -0.871  -0.866  -0.839  -0.785  -0.734  -0.729
 11 A1   12 A1    6 B1   13 A1    7 B1   14 A1    8 B1   15 A1
 -0.727  -0.633  -0.625  -0.536
  2 B2    3 B2    9 B1    4 B2

          Ground-State Mulliken Net Atomic Charges

     Atom                 Charge (a.u.)    Spin (a.u.)
  --------------------------------------------------------
      1 H                     0.299987      -0.038511
      2 C                    -0.277789       0.590292
      3 C                    -0.173693       0.423808
      4 H                     0.333377      -0.030179
      5 C                    -0.418915      -0.299000
      6 H                     0.262936       0.011736
      7 C                    -0.173693       0.423808
      8 H                     0.333377      -0.030179
      9 C                    -0.277789       0.590292
     10 H                     0.299987      -0.038511
     11 C                     0.066788      -0.572208
     12 Cl                    0.725426      -0.031348
  --------------------------------------------------------
  Sum of atomic charges =     1.000000

                    Cartesian Multipole Moments
 -----------------------------------------------------------------
    Charge (ESU x 10^10)
                 4.8032
    Dipole Moment (Debye)
         X      -0.0000      Y       0.0000      Z      -4.9358
       Tot       4.9358
    Quadrupole Moments (Debye-Ang)
        XX     -28.2031     XY      -0.0000     YY     -47.6541
        XZ       0.0000     YZ      -0.0000     ZZ     -31.6869

 Total job time:  36055.18s(wall), 218797.55s(cpu)
        *  Thank you very much for using Q-Chem.  Have a nice day.  *
