 Q-Chem 5.1, Q-Chem, Inc., Pleasanton, CA (2018)
 Q-Chem 5.1.0 for Intel X86 EM64T Linux

User input:
--------------------------------------------------------------
$comment
Optimized Cl-Bz, XAS,
6-311(2+,+)G** with uncontacted core on carbon only
$end

$molecule
0 1
 H        -2.1400320233    0.0000000000    0.5090177858
 C        -1.2120583232    0.0000000000   -0.0442490642
 C        -1.2042956497    0.0000000000   -1.4361358281
 H        -2.1437187877    0.0000000000   -1.9716770234
 C         0.0000000000    0.0000000000   -2.1351330277
 H         0.0000000000    0.0000000000   -3.2159870334
 C         1.2042956497    0.0000000000   -1.4361358281
 H         2.1437187877    0.0000000000   -1.9716770234
 C         1.2120583232    0.0000000000   -0.0442490642
 H         2.1400320233    0.0000000000    0.5090177858
 C         0.0000000000    0.0000000000    0.6386615242
 Cl        0.0000000000    0.0000000000    2.3695929760
$end

$rem
   JOB_TYPE  =  SP
   BASIS  =  general
   METHOD  =  EOM-CCSD
   CVS_EE_STATES = [15,0,15,15]
   eom_preconv_singles = true
   n_frozen_core = 7
   cc_trans_prop = true
   use_libqints = 1   !use new int library (will be def in trunk)
   cc_memory = 100000
   EOM_DAVIDSON_MAX_ITER 200
   EOM_DAVIDSON_MAXVECTORS = 1000
   eom_davidson_convergence = 4
   eom_shift = 10000
$end

$basis
H    0
S    3    1.000000
   3.38650000E+01    2.54938000E-02
   5.09479000E+00    1.90373000E-01
   1.15879000E+00    8.52161000E-01
S    1    1.000000
   3.25840000E-01    1.00000000E+00
S    1    1.000000
   1.02741000E-01    1.00000000E+00
S    1    1.000000
   3.60000000E-02    1.00000000E+00
P    1    1.000000
   7.50000000E-01    1.00000000E+00
****
C    0
S    1    1.000000
   4.56324000E+03    1.96665000E-03
S    1    1.000000
   6.82024000E+02    1.52306000E-02
S    1    1.000000
   1.54973000E+02    7.61269000E-02
S    1    1.000000
   4.44553000E+01    2.60801000E-01
S    1    1.000000
   1.30290000E+01    6.16462000E-01
S    1    1.000000
   1.82773000E+00    2.21006000E-01
SP   3    1.000000
   2.09642000E+01    1.14660000E-01   4.02487000E-02
   4.80331000E+00    9.19999000E-01   2.37594000E-01
   1.45933000E+00   -3.03068000E-03   8.15854000E-01
SP   1    1.000000
   4.83456000E-01    1.00000000E+00   1.00000000E+00
SP   1    1.000000
   1.45585000E-01    1.00000000E+00   1.00000000E+00
SP   1    1.000000
   4.38000000E-02    1.00000000E+00   1.00000000E+00
SP   1    1.000000
   1.31927711E-02    1.00000000E+00   1.00000000E+00
D    1    1.000000
   6.26000000E-01    1.00000000E+00
****
Cl   0
S    6    1.000000
   1.05819000E+05    7.38000000E-04
   1.58720000E+04    5.71800000E-03
   3.61965000E+03    2.94950000E-02
   1.03080000E+03    1.17286000E-01
   3.39908000E+02    3.62949000E-01
   1.24538000E+02    5.84149000E-01
S    3    1.000000
   1.24538000E+02    1.34177000E-01
   4.95135000E+01    6.24250000E-01
   2.08056000E+01    2.91756000E-01
S    1    1.000000
   6.58346000E+00    1.00000000E+00
S    1    1.000000
   2.56468000E+00    1.00000000E+00
S    1    1.000000
   5.59763000E-01    1.00000000E+00
S    1    1.000000
   1.83273000E-01    1.00000000E+00
P    5    1.000000
   5.89776000E+02    2.39100000E-03
   1.39849000E+02    1.85040000E-02
   4.51413000E+01    8.13770000E-02
   1.68733000E+01    2.21552000E-01
   6.74110000E+00    7.72569000E-01
P    2    1.000000
   6.74110000E+00   -1.57224400E+00
   2.77152000E+00    9.92389000E-01
P    1    1.000000
   1.02387000E+00    1.00000000E+00
P    1    1.000000
   3.81368000E-01    1.00000000E+00
P    1    1.000000
   1.09437000E-01    1.00000000E+00
SP   1    1.000000
   4.83000000E-02    1.00000000E+00   1.00000000E+00
SP   1    1.000000
   1.45481928E-02    1.00000000E+00   1.00000000E+00
D    1    1.000000
   7.50000000E-01    1.00000000E+00
****
$end

--------------------------------------------------------------

             Standard Nuclear Orientation (Angstroms)
    I     Atom           X                Y                Z
 ----------------------------------------------------------------
    1      H      -2.1400320233     0.0000000000     0.3814604176
    2      C      -1.2120583232     0.0000000000    -0.1718064324
    3      C      -1.2042956497     0.0000000000    -1.5636931963
    4      H      -2.1437187877     0.0000000000    -2.0992343916
    5      C      -0.0000000000    -0.0000000000    -2.2626903959
    6      H      -0.0000000000    -0.0000000000    -3.3435444016
    7      C       1.2042956497    -0.0000000000    -1.5636931963
    8      H       2.1437187877    -0.0000000000    -2.0992343916
    9      C       1.2120583232    -0.0000000000    -0.1718064324
   10      H       2.1400320233    -0.0000000000     0.3814604176
   11      C       0.0000000000     0.0000000000     0.5111041560
   12      Cl      0.0000000000     0.0000000000     2.2420356078
 ----------------------------------------------------------------

   19    -689.6809388769      4.85e-09  Convergence criterion met
 CCSD total energy           = -690.72382682
 EOMEE transition 1/A1
 Total energy = -680.14375197 a.u.  Excitation energy = 287.8985 eV.
 EOMEE transition 2/A1
 Total energy = -680.13938990 a.u.  Excitation energy = 288.0172 eV.
 EOMEE transition 3/A1
 Total energy = -680.13456110 a.u.  Excitation energy = 288.1486 eV.
 EOMEE transition 4/A1
 Total energy = -680.11191240 a.u.  Excitation energy = 288.7649 eV.
 EOMEE transition 5/A1
 Total energy = -680.10260963 a.u.  Excitation energy = 289.0180 eV.
 EOMEE transition 6/A1
 Total energy = -680.10138043 a.u.  Excitation energy = 289.0515 eV.
 EOMEE transition 7/A1
 Total energy = -680.10015402 a.u.  Excitation energy = 289.0848 eV.
 EOMEE transition 8/A1
 Total energy = -680.09688490 a.u.  Excitation energy = 289.1738 eV.
 EOMEE transition 9/A1
 Total energy = -680.09509739 a.u.  Excitation energy = 289.2224 eV.
 EOMEE transition 10/A1
 Total energy = -680.08634441 a.u.  Excitation energy = 289.4606 eV.
 EOMEE transition 11/A1
 Total energy = -680.08531423 a.u.  Excitation energy = 289.4887 eV.
 EOMEE transition 12/A1
 Total energy = -680.08054546 a.u.  Excitation energy = 289.6184 eV.
 EOMEE transition 13/A1
 Total energy = -680.07550506 a.u.  Excitation energy = 289.7556 eV.
 EOMEE transition 14/A1
 EOMEE transition 15/A1
 EOMEE transition 1/B1
 EOMEE transition 2/B1
 EOMEE transition 3/B1
 EOMEE transition 4/B1
 EOMEE transition 5/B1
 EOMEE transition 6/B1
 EOMEE transition 7/B1
 EOMEE transition 8/B1
 EOMEE transition 9/B1
 EOMEE transition 10/B1
 EOMEE transition 11/B1
 EOMEE transition 12/B1
 EOMEE transition 13/B1
 EOMEE transition 14/B1
 EOMEE transition 15/B1
 EOMEE transition 1/B2
 Total energy = -680.21431953 a.u.  Excitation energy = 285.9782 eV.
 EOMEE transition 2/B2
 Total energy = -680.21377110 a.u.  Excitation energy = 285.9932 eV.
 EOMEE transition 3/B2
 Total energy = -680.21186906 a.u.  Excitation energy = 286.0449 eV.
 EOMEE transition 4/B2
 Total energy = -680.16650115 a.u.  Excitation energy = 287.2794 eV.
 EOMEE transition 5/B2
 Total energy = -680.15491481 a.u.  Excitation energy = 287.5947 eV.
 EOMEE transition 6/B2
 Total energy = -680.15385176 a.u.  Excitation energy = 287.6236 eV.
 EOMEE transition 7/B2
 Total energy = -680.10139458 a.u.  Excitation energy = 289.0511 eV.
 EOMEE transition 8/B2
 Total energy = -680.09700825 a.u.  Excitation energy = 289.1704 eV.
 EOMEE transition 9/B2
 Total energy = -680.09466705 a.u.  Excitation energy = 289.2341 eV.
 EOMEE transition 10/B2
 Total energy = -680.06955396 a.u.  Excitation energy = 289.9175 eV.
 EOMEE transition 11/B2
 Total energy = -680.06916644 a.u.  Excitation energy = 289.9281 eV.
 EOMEE transition 12/B2
 Total energy = -680.06774558 a.u.  Excitation energy = 289.9667 eV.
 EOMEE transition 13/B2
 Total energy = -680.06516636 a.u.  Excitation energy = 290.0369 eV.
 EOMEE transition 14/B2
 Total energy = -680.06333440 a.u.  Excitation energy = 290.0868 eV.
 EOMEE transition 15/B2
 Total energy = -680.04606465 a.u.  Excitation energy = 290.5567 eV.

             Orbital Energies (a.u.) and Symmetries
 --------------------------------------------------------------

 Alpha MOs, Restricted
 -- Occupied --
-104.84  -11.31  -11.25  -11.25  -11.25  -11.25  -11.25  -10.57
  1 A1    2 A1    3 A1    1 B1    4 A1    2 B1    5 A1    6 A1
 -8.034  -8.031  -8.031  -1.196  -1.124  -1.036  -1.000  -0.850
  7 A1    3 B1    1 B2    8 A1    9 A1    4 B1   10 A1    5 B1
 -0.823  -0.715  -0.651  -0.651  -0.607  -0.593  -0.547  -0.520
 11 A1   12 A1    6 B1   13 A1    7 B1   14 A1    2 B2    8 B1
 -0.515  -0.471  -0.456  -0.354  -0.338
 15 A1    3 B2    9 B1    1 A2    4 B2

 Beta MOs, Restricted
 -- Occupied --
-104.84  -11.31  -11.25  -11.25  -11.25  -11.25  -11.25  -10.57
  1 A1    2 A1    3 A1    1 B1    4 A1    2 B1    5 A1    6 A1
 -8.034  -8.031  -8.031  -1.196  -1.124  -1.036  -1.000  -0.850
  7 A1    3 B1    1 B2    8 A1    9 A1    4 B1   10 A1    5 B1
 -0.823  -0.715  -0.651  -0.651  -0.607  -0.593  -0.547  -0.520
 11 A1   12 A1    6 B1   13 A1    7 B1   14 A1    2 B2    8 B1
 -0.515  -0.471  -0.456  -0.354  -0.338
 15 A1    3 B2    9 B1    1 A2    4 B2

          Ground-State Mulliken Net Atomic Charges

     Atom                 Charge (a.u.)
  ----------------------------------------
      1 H                     0.191423
      2 C                    -0.467624
      3 C                    -0.325326
      4 H                     0.223694
      5 C                    -0.337041
      6 H                     0.184041
      7 C                    -0.325326
      8 H                     0.223694
      9 C                    -0.467624
     10 H                     0.191423
     11 C                     0.389122
     12 Cl                    0.519542
  ----------------------------------------
  Sum of atomic charges =    -0.000000

                    Cartesian Multipole Moments
 -----------------------------------------------------------------
    Charge (ESU x 10^10)
                 0.0000
    Dipole Moment (Debye)
         X       0.0000      Y       0.0000      Z      -1.9696
       Tot       1.9696
    Quadrupole Moments (Debye-Ang)
        XX     -42.4455     XY       0.0000     YY     -52.7498
        XZ       0.0000     YZ      -0.0000     ZZ     -46.7168

 Total job time:  28939.64s(wall), 157779.51s(cpu)
        *  Thank you very much for using Q-Chem.  Have a nice day.  *
