 Q-Chem 5.1, Q-Chem, Inc., Pleasanton, CA (2018)
 Q-Chem 5.1.1 for Intel X86 EM64T Linux

User input:
--------------------------------------------------------------
$commen
RI-MP2/cc-pVTZ optimized geometry for neutral species
NEXAFS
basis = 6-311(2+,+)G** (ucC)
$end

$molecule
+1 2
 H        -2.1400320233    0.0000000000    0.5090177858
 C        -1.2120583232    0.0000000000   -0.0442490642
 C        -1.2042956497    0.0000000000   -1.4361358281
 H        -2.1437187877    0.0000000000   -1.9716770234
 C         0.0000000000    0.0000000000   -2.1351330277
 H         0.0000000000    0.0000000000   -3.2159870334
 C         1.2042956497    0.0000000000   -1.4361358281
 H         2.1437187877    0.0000000000   -1.9716770234
 C         1.2120583232    0.0000000000   -0.0442490642
 H         2.1400320233    0.0000000000    0.5090177858
 C         0.0000000000    0.0000000000    0.6386615242
 Cl        0.0000000000    0.0000000000    2.3695929760
$end

$rem
   JOB_TYPE  =  SP
   BASIS  =  general
   METHOD  =  EOM-CCSD
   CVS_EE_STATES = [10,10,10,10]
   eom_preconv_singles = true
   n_frozen_core = fc
   cc_trans_prop = true
   use_libqints = 1   !use new int library (will be def in trunk)
   cc_memory = 100000
   EOM_DAVIDSON_MAX_ITER 200
   EOM_DAVIDSON_MAXVECTORS = 1000
   eom_davidson_convergence = 4
$end

$basis
H    0
6-311(2+,+)G**
****
Cl   0
6-311(2+,+)G**
****
C    0
S    1    1.000000
   4.56324000E+03    1.96665000E-03
S    1    1.000000
   6.82024000E+02    1.52306000E-02
S    1    1.000000
   1.54973000E+02    7.61269000E-02
S    1    1.000000
   4.44553000E+01    2.60801000E-01
S    1    1.000000
   1.30290000E+01    6.16462000E-01
S    1    1.000000
   1.82773000E+00    2.21006000E-01
SP   3    1.000000
   2.09642000E+01    1.14660000E-01   4.02487000E-02
   4.80331000E+00    9.19999000E-01   2.37594000E-01
   1.45933000E+00   -3.03068000E-03   8.15854000E-01
SP   1    1.000000
   4.83456000E-01    1.00000000E+00   1.00000000E+00
SP   1    1.000000
   1.45585000E-01    1.00000000E+00   1.00000000E+00
SP   1    1.000000
   4.38000000E-02    1.00000000E+00   1.00000000E+00
SP   1    1.000000
   1.31927711E-02    1.00000000E+00   1.00000000E+00
D    1    1.000000
   6.26000000E-01    1.00000000E+00
****
end

--------------------------------------------------------------

             Standard Nuclear Orientation (Angstroms)
    I     Atom           X                Y                Z
 ----------------------------------------------------------------
    1      H      -2.1400320233     0.0000000000     0.3814604176
    2      C      -1.2120583232     0.0000000000    -0.1718064324
    3      C      -1.2042956497     0.0000000000    -1.5636931963
    4      H      -2.1437187877     0.0000000000    -2.0992343916
    5      C      -0.0000000000     0.0000000000    -2.2626903959
    6      H      -0.0000000000     0.0000000000    -3.3435444016
    7      C       1.2042956497     0.0000000000    -1.5636931963
    8      H       2.1437187877     0.0000000000    -2.0992343916
    9      C       1.2120583232    -0.0000000000    -0.1718064324
   10      H       2.1400320233    -0.0000000000     0.3814604176
   11      C       0.0000000000    -0.0000000000     0.5111041560
   12      Cl      0.0000000000    -0.0000000000     2.2420356078
 ----------------------------------------------------------------

   24    -689.3759823413      3.89e-09  Convergence criterion met
 Total energy in the final basis set =     -689.3759823413
 CCSD total energy           = -690.34038898
        Solving for CVS-EOMEE-CCSD A1 transitions.
 EOMEE transition 1/A1
 Total energy = -682.91351616 a.u.  Excitation energy = 202.0955 eV.
 EOMEE transition 2/A1
 Total energy = -682.88477066 a.u.  Excitation energy = 202.8777 eV.
 EOMEE transition 3/A1
 Total energy = -682.86697664 a.u.  Excitation energy = 203.3619 eV.
 EOMEE transition 4/A1
 Total energy = -682.84264991 a.u.  Excitation energy = 204.0239 eV.
 EOMEE transition 5/A1
 Total energy = -682.78893755 a.u.  Excitation energy = 205.4854 eV.
 EOMEE transition 6/A1
 Total energy = -682.78674478 a.u.  Excitation energy = 205.5451 eV.
 EOMEE transition 7/A1
 Total energy = -682.74920796 a.u.  Excitation energy = 206.5665 eV.
 EOMEE transition 8/A1
 Total energy = -682.74675410 a.u.  Excitation energy = 206.6333 eV.
 EOMEE transition 9/A1
 Total energy = -682.74440292 a.u.  Excitation energy = 206.6973 eV.
 EOMEE transition 10/A1
 Total energy = -682.74048052 a.u.  Excitation energy = 206.8040 eV.
        Solving for CVS-EOMEE-CCSD A2 transitions.
 EOMEE transition 1/A2
 Total energy = -683.02310565 a.u.  Excitation energy = 199.1134 eV.
 EOMEE transition 2/A2
 Total energy = -682.86738430 a.u.  Excitation energy = 203.3508 eV.
 EOMEE transition 3/A2
 EOMEE transition 4/A2
 EOMEE transition 5/A2
 EOMEE transition 6/A2
 EOMEE transition 7/A2
 EOMEE transition 8/A2
 EOMEE transition 9/A2
 EOMEE transition 10/A2
        Solving for CVS-EOMEE-CCSD B1 transitions.
 EOMEE transition 1/B1
 EOMEE transition 2/B1
 EOMEE transition 3/B1
 EOMEE transition 4/B1
 EOMEE transition 5/B1
 EOMEE transition 6/B1
 Total energy = -682.79380858 a.u.  Excitation energy = 205.3529 eV.
 EOMEE transition 7/B1
 Total energy = -682.79227036 a.u.  Excitation energy = 205.3948 eV.
 EOMEE transition 8/B1
 Total energy = -682.74399039 a.u.  Excitation energy = 206.7085 eV.
 EOMEE transition 9/B1
 Total energy = -682.74288942 a.u.  Excitation energy = 206.7385 eV.
 EOMEE transition 10/B1
 Total energy = -682.74249577 a.u.  Excitation energy = 206.7492 eV.
        Solving for CVS-EOMEE-CCSD B2 transitions.
 EOMEE transition 1/B2
 Total energy = -683.02727238 a.u.  Excitation energy = 199.0000 eV.
 EOMEE transition 2/B2
 Total energy = -682.91088136 a.u.  Excitation energy = 202.1672 eV.
 EOMEE transition 3/B2
 Total energy = -682.90263073 a.u.  Excitation energy = 202.3917 eV.
 EOMEE transition 4/B2
 Total energy = -682.87197086 a.u.  Excitation energy = 203.2260 eV.
 EOMEE transition 5/B2
 Total energy = -682.86373715 a.u.  Excitation energy = 203.4500 eV.
 EOMEE transition 6/B2
 Total energy = -682.83947787 a.u.  Excitation energy = 204.1102 eV.
 EOMEE transition 7/B2
 Total energy = -682.81439614 a.u.  Excitation energy = 204.7927 eV.
 EOMEE transition 8/B2
 Total energy = -682.79429222 a.u.  Excitation energy = 205.3397 eV.
 EOMEE transition 9/B2
 Total energy = -682.79239375 a.u.  Excitation energy = 205.3914 eV.
 EOMEE transition 10/B2
 Total energy = -682.74452103 a.u.  Excitation energy = 206.6941 eV.

             Orbital Energies (a.u.) and Symmetries
 --------------------------------------------------------------

 Alpha MOs, Unrestricted
 -- Occupied --
-105.01  -11.51  -11.51  -11.50  -11.50  -11.50  -11.45  -10.73
  1 A1    2 A1    1 B1    3 A1    2 B1    4 A1    5 A1    6 A1
 -8.202  -8.198  -8.197  -1.425  -1.319  -1.296  -1.208  -1.081
  7 A1    3 B1    1 B2    8 A1    9 A1    4 B1   10 A1    5 B1
 -1.049  -0.934  -0.882  -0.869  -0.842  -0.788  -0.778  -0.740
 11 A1   12 A1    6 B1   13 A1    7 B1   14 A1    2 B2    8 B1
 -0.722  -0.653  -0.637  -0.625  -0.537
 15 A1    3 B2    1 A2    9 B1    4 B2

 Beta MOs, Unrestricted
 -- Occupied --
-105.01  -11.51  -11.50  -11.50  -11.49  -11.49  -11.46  -10.73
  1 A1    2 A1    3 A1    1 B1    2 B1    4 A1    5 A1    6 A1
 -8.201  -8.199  -8.198  -1.406  -1.319  -1.242  -1.206  -1.060
  7 A1    1 B2    3 B1    8 A1    9 A1    4 B1   10 A1    5 B1
 -1.043  -0.930  -0.876  -0.864  -0.833  -0.789  -0.738  -0.722
 11 A1   12 A1    6 B1   13 A1    7 B1   14 A1    8 B1    2 B2
 -0.719  -0.639  -0.624  -0.548
 15 A1    3 B2    9 B1    4 B2

          Ground-State Mulliken Net Atomic Charges

     Atom                 Charge (a.u.)    Spin (a.u.)
  --------------------------------------------------------
      1 H                     0.296979      -0.035681
      2 C                    -0.297264       0.540250
      3 C                    -0.201242       0.450869
      4 H                     0.333367      -0.033445
      5 C                    -0.402971      -0.343228
      6 H                     0.265007       0.015521
      7 C                    -0.201242       0.450869
      8 H                     0.333367      -0.033445
      9 C                    -0.297264       0.540250
     10 H                     0.296979      -0.035681
     11 C                     0.169269      -0.500771
     12 Cl                    0.705015      -0.015509
  --------------------------------------------------------
  Sum of atomic charges =     1.000000

                    Cartesian Multipole Moments
 -----------------------------------------------------------------
    Charge (ESU x 10^10)
                 4.8032
    Dipole Moment (Debye)
         X      -0.0000      Y      -0.0000      Z      -5.2419
       Tot       5.2419
    Quadrupole Moments (Debye-Ang)
        XX     -28.8022     XY      -0.0000     YY     -47.5745
        XZ       0.0000     YZ       0.0000     ZZ     -31.3100

 Total job time:  43081.28s(wall), 279870.62s(cpu)
        *  Thank you very much for using Q-Chem.  Have a nice day.  *
