 Q-Chem 5.1, Q-Chem, Inc., Pleasanton, CA (2018)
 Q-Chem 5.1.1 for Intel X86 EM64T Linux

User input:
--------------------------------------------------------------
$comment
Open-shell calculation at the relaxted geometry of the lowest state (B3g)
$end

$molecule
+1 2
 H         1.2392908131   -2.1390691708    0.0000000000
 C         0.7225974533   -1.1894682957    0.0000000000
 C        -0.7225974533   -1.1894682957    0.0000000000
 H        -1.2392908131   -2.1390691708    0.0000000000
 C        -1.4341864916    0.0000000000    0.0000000000
 H        -2.5128824541    0.0000000000    0.0000000000
 C        -0.7225974533    1.1894682957    0.0000000000
 H        -1.2392908131    2.1390691708    0.0000000000
 C         0.7225974533    1.1894682957    0.0000000000
 H         1.2392908131    2.1390691708    0.0000000000
 C         1.4341864916    0.0000000000    0.0000000000
 H         2.5128824541    0.0000000000    0.0000000000
$end

$rem
   JOB_TYPE  =  SP
   BASIS  =  general
   METHOD  =  EOM-CCSD
   CVS_EE_STATES = [0,0,0,0,0,6,6,6]  Bright transitions only
   CC_MEMORY = 80000
   EOM_DAVIDSON_MAXVECTORS = 120
   cc_trans_prop = 1
   eom_shift = 10327  281 eV
$end

$basis
H    0
S    3    1.000000
   3.38650000E+01    2.54938000E-02
   5.09479000E+00    1.90373000E-01
   1.15879000E+00    8.52161000E-01
S    1    1.000000
   3.25840000E-01    1.00000000E+00
S    1    1.000000
   1.02741000E-01    1.00000000E+00
S    1    1.000000
   3.60000000E-02    1.00000000E+00
P    1    1.000000
   7.50000000E-01    1.00000000E+00
****
C    0
S    1    1.000000
   4.56324000E+03    1.96665000E-03
S    1    1.000000
   6.82024000E+02    1.52306000E-02
S    1    1.000000
   1.54973000E+02    7.61269000E-02
S    1    1.000000
   4.44553000E+01    2.60801000E-01
S    1    1.000000
   1.30290000E+01    6.16462000E-01
S    1    1.000000
   1.82773000E+00    2.21006000E-01
SP   3    1.000000
   2.09642000E+01    1.14660000E-01   4.02487000E-02
   4.80331000E+00    9.19999000E-01   2.37594000E-01
   1.45933000E+00   -3.03068000E-03   8.15854000E-01
SP   1    1.000000
   4.83456000E-01    1.00000000E+00   1.00000000E+00
SP   1    1.000000
   1.45585000E-01    1.00000000E+00   1.00000000E+00
SP   1    1.000000
   4.38000000E-02    1.00000000E+00   1.00000000E+00
SP   1    1.000000
   1.31927711E-02    1.00000000E+00   1.00000000E+00
D    1    1.000000
   6.26000000E-01    1.00000000E+00
****
$end
--------------------------------------------------------------

             Standard Nuclear Orientation (Angstroms)
    I     Atom           X                Y                Z
 ----------------------------------------------------------------
    1      H      -1.2392908131    -2.1390691708    -0.0000000000
    2      C      -0.7225974533    -1.1894682957    -0.0000000000
    3      C       0.7225974533    -1.1894682957     0.0000000000
    4      H       1.2392908131    -2.1390691708     0.0000000000
    5      C       1.4341864916     0.0000000000     0.0000000000
    6      H       2.5128824541     0.0000000000     0.0000000000
    7      C       0.7225974533     1.1894682957     0.0000000000
    8      H       1.2392908131     2.1390691708     0.0000000000
    9      C      -0.7225974533     1.1894682957    -0.0000000000
   10      H      -1.2392908131     2.1390691708    -0.0000000000
   11      C      -1.4341864916    -0.0000000000    -0.0000000000
   12      H      -2.5128824541    -0.0000000000    -0.0000000000
 ----------------------------------------------------------------

   15    -230.4708827989      6.81e-09  Convergence criterion met
 Total energy in the final basis set =     -230.4708827989
 CCSD total energy           = -231.29326766
        Solving for CVS-EOMEE-CCSD B1u transitions.
 EOMEE transition 1/B1u
 Total energy = -220.94192090 a.u.  Excitation energy = 281.6745 eV.
 EOMEE transition 2/B1u
 Total energy = -220.81569898 a.u.  Excitation energy = 285.1091 eV.
 EOMEE transition 3/B1u
 Total energy = -220.79052682 a.u.  Excitation energy = 285.7941 eV.
 EOMEE transition 4/B1u
 Total energy = -220.76587128 a.u.  Excitation energy = 286.4650 eV.
 EOMEE transition 5/B1u
 Total energy = -220.72671314 a.u.  Excitation energy = 287.5306 eV.
 EOMEE transition 6/B1u
 Total energy = -220.68899903 a.u.  Excitation energy = 288.5568 eV.
        Solving for CVS-EOMEE-CCSD B2u transitions.
 EOMEE transition 1/B2u
 Total energy = -220.62953190 a.u.  Excitation energy = 290.1750 eV.
 EOMEE transition 2/B2u
 Total energy = -220.60969577 a.u.  Excitation energy = 290.7148 eV.
 EOMEE transition 3/B2u
 Total energy = -220.59716933 a.u.  Excitation energy = 291.0556 eV.
 EOMEE transition 4/B2u
 Total energy = -220.58945022 a.u.  Excitation energy = 291.2657 eV.
 EOMEE transition 5/B2u
 Total energy = -220.57680581 a.u.  Excitation energy = 291.6098 eV.
 EOMEE transition 6/B2u
 Total energy = -220.57252341 a.u.  Excitation energy = 291.7263 eV.
        Solving for CVS-EOMEE-CCSD B3u transitions.
 EOMEE transition 1/B3u
 Total energy = -220.66274896 a.u.  Excitation energy = 289.2711 eV.
 EOMEE transition 2/B3u
 Total energy = -220.64629461 a.u.  Excitation energy = 289.7189 eV.
 EOMEE transition 3/B3u
 Total energy = -220.63009088 a.u.  Excitation energy = 290.1598 eV.
 EOMEE transition 4/B3u
 Total energy = -220.61523100 a.u.  Excitation energy = 290.5642 eV.
 EOMEE transition 5/B3u
 Total energy = -220.61056801 a.u.  Excitation energy = 290.6910 eV.
 EOMEE transition 6/B3u
 Total energy = -220.60649414 a.u.  Excitation energy = 290.8019 eV.

             Orbital Energies (a.u.) and Symmetries
 --------------------------------------------------------------

 Alpha MOs, Unrestricted
 -- Occupied --
-11.498 -11.498 -11.497 -11.497 -11.442 -11.442  -1.393  -1.263
  1 B2u   1 Ag    1 B3u   1 B1g   2 B3u   2 Ag    3 Ag    2 B2u
 -1.247  -1.066  -1.048  -0.934  -0.869  -0.853  -0.816  -0.812
  3 B3u   2 B1g   4 Ag    5 Ag    4 B3u   3 B2u   4 B2u   5 B3u
 -0.749  -0.727  -0.716  -0.609  -0.557
  1 B1u   3 B1g   6 Ag    1 B3g   1 B2g

 Beta MOs, Unrestricted
 -- Occupied --
-11.490 -11.490 -11.489 -11.489 -11.449 -11.449  -1.370  -1.251
  1 Ag    1 B2u   1 B3u   1 B1g   2 B3u   2 Ag    3 Ag    3 B3u
 -1.212  -1.045  -1.042  -0.930  -0.862  -0.847  -0.814  -0.806
  2 B2u   2 B1g   4 Ag    5 Ag    4 B3u   3 B2u   5 B3u   4 B2u
 -0.725  -0.711  -0.668  -0.576
  3 B1g   6 Ag    1 B1u   1 B2g

          Ground-State Mulliken Net Atomic Charges

     Atom                 Charge (a.u.)    Spin (a.u.)
  --------------------------------------------------------
      1 H                     0.303226      -0.034125
      2 C                    -0.058540       0.500830
      3 C                    -0.058540       0.500830
      4 H                     0.303226      -0.034125
      5 C                    -0.269821      -0.452676
      6 H                     0.280450       0.019265
      7 C                    -0.058540       0.500830
      8 H                     0.303226      -0.034125
      9 C                    -0.058540       0.500830
     10 H                     0.303226      -0.034125
     11 C                    -0.269821      -0.452676
     12 H                     0.280450       0.019265
  --------------------------------------------------------
  Sum of atomic charges =     1.000000

                    Cartesian Multipole Moments
 -----------------------------------------------------------------
    Charge (ESU x 10^10)
                 4.8032
    Dipole Moment (Debye)
         X      -0.0000      Y       0.0000      Z       0.0000
       Tot       0.0000
    Quadrupole Moments (Debye-Ang)
        XX     -22.2030     XY       0.0000     YY     -18.3226
        XZ      -0.0000     YZ       0.0000     ZZ     -36.1624

 Total job time:  8592.14s(wall), 50259.64s(cpu)
        *  Thank you very much for using Q-Chem.  Have a nice day.  *
