 Q-Chem 5.1, Q-Chem, Inc., Pleasanton, CA (2018)
 Q-Chem 5.1.0 for Intel X86 EM64T Linux

User input:
--------------------------------------------------------------
$commen
RI-MP2/cc-pVTZ optimized geometry.
basis = 6-311(2+,+)G** (ucC)
$end

$molecule
0 1
H       2.4750347531     0.0000000000    -0.0000000000
C       1.3935929418     0.0000000000    -0.0000000000
C       0.6967964709     1.2068868901     0.0000000000
H       1.2375173766     2.1434429715     0.0000000000
C      -0.6967964709     1.2068868901     0.0000000000
H      -1.2375173766     2.1434429715     0.0000000000
C      -1.3935929418    -0.0000000000     0.0000000000
H      -2.4750347531    -0.0000000000     0.0000000000
C      -0.6967964709    -1.2068868901    -0.0000000000
H      -1.2375173766    -2.1434429715    -0.0000000000
C       0.6967964709    -1.2068868901    -0.0000000000
H       1.2375173766    -2.1434429715    -0.0000000000
$end

$rem
   JOB_TYPE  =  SP
   BASIS  =  general
   METHOD  =  EOM-CCSD
   CVS_EE_STATES = [0,0,0,0,0,15,15,15]
   eom_preconv_singles = true
   n_frozen_core = fc
   cc_trans_prop = true
   use_libqints = 1   !use new int library (will be def in trunk)
   cc_memory = 100000
   EOM_DAVIDSON_MAX_ITER 200
   EOM_DAVIDSON_MAXVECTORS = 1000
   eom_davidson_convergence = 4
   eom_shift = 10000
$end

$basis
H    0
6-311(2+,+)G**
****
C    0
S    1    1.000000
   4.56324000E+03    1.96665000E-03
S    1    1.000000
   6.82024000E+02    1.52306000E-02
S    1    1.000000
   1.54973000E+02    7.61269000E-02
S    1    1.000000
   4.44553000E+01    2.60801000E-01
S    1    1.000000
   1.30290000E+01    6.16462000E-01
S    1    1.000000
   1.82773000E+00    2.21006000E-01
SP   3    1.000000
   2.09642000E+01    1.14660000E-01   4.02487000E-02
   4.80331000E+00    9.19999000E-01   2.37594000E-01
   1.45933000E+00   -3.03068000E-03   8.15854000E-01
SP   1    1.000000
   4.83456000E-01    1.00000000E+00   1.00000000E+00
SP   1    1.000000
   1.45585000E-01    1.00000000E+00   1.00000000E+00
SP   1    1.000000
   4.38000000E-02    1.00000000E+00   1.00000000E+00
SP   1    1.000000
   1.31927711E-02    1.00000000E+00   1.00000000E+00
D    1    1.000000
   6.26000000E-01    1.00000000E+00
****
end

--------------------------------------------------------------

             Standard Nuclear Orientation (Angstroms)
    I     Atom           X                Y                Z
 ----------------------------------------------------------------
    1      H       2.4750347531     0.0000000000    -0.0000000000
    2      C       1.3935929418     0.0000000000    -0.0000000000
    3      C       0.6967964709     1.2068868901     0.0000000000
    4      H       1.2375173766     2.1434429715     0.0000000000
    5      C      -0.6967964709     1.2068868901     0.0000000000
    6      H      -1.2375173766     2.1434429715     0.0000000000
    7      C      -1.3935929418    -0.0000000000     0.0000000000
    8      H      -2.4750347531    -0.0000000000     0.0000000000
    9      C      -0.6967964709    -1.2068868901    -0.0000000000
   10      H      -1.2375173766    -2.1434429715    -0.0000000000
   11      C       0.6967964709    -1.2068868901    -0.0000000000
   12      H       1.2375173766    -2.1434429715    -0.0000000000
 ----------------------------------------------------------------

   14    -230.7568474146      3.04e-09  Convergence criterion met
 CCSD total energy           = -231.62421954
 EOMEE transition 1/B1u
 Total energy = -221.11535906 a.u.  Excitation energy = 285.9606 eV.
 EOMEE transition 2/B1u
 Total energy = -221.11499859 a.u.  Excitation energy = 285.9704 eV.
 EOMEE transition 3/B1u
 Total energy = -221.05768230 a.u.  Excitation energy = 287.5301 eV.
 EOMEE transition 4/B1u
 Total energy = -221.00888484 a.u.  Excitation energy = 288.8579 eV.
 EOMEE transition 5/B1u
 Total energy = -221.00688312 a.u.  Excitation energy = 288.9124 eV.
 EOMEE transition 6/B1u
 Total energy = -220.98166623 a.u.  Excitation energy = 289.5986 eV.
 EOMEE transition 7/B1u
 Total energy = -220.97955232 a.u.  Excitation energy = 289.6561 eV.
 EOMEE transition 8/B1u
 Total energy = -220.97923903 a.u.  Excitation energy = 289.6647 eV.
 EOMEE transition 9/B1u
 Total energy = -220.95654487 a.u.  Excitation energy = 290.2822 eV.
 EOMEE transition 10/B1u
 Total energy = -220.95610564 a.u.  Excitation energy = 290.2941 eV.
 EOMEE transition 11/B1u
 Total energy = -220.95350648 a.u.  Excitation energy = 290.3649 eV.
 EOMEE transition 12/B1u
 Total energy = -220.93623355 a.u.  Excitation energy = 290.8349 eV.
 EOMEE transition 13/B1u
 Total energy = -220.93406109 a.u.  Excitation energy = 290.8940 eV.
 EOMEE transition 14/B1u
 EOMEE transition 15/B1u
 EOMEE transition 1/B2u
 EOMEE transition 2/B2u
 EOMEE transition 3/B2u
 EOMEE transition 4/B2u
 EOMEE transition 5/B2u
 EOMEE transition 6/B2u
 EOMEE transition 7/B2u
 EOMEE transition 8/B2u
 EOMEE transition 9/B2u
 EOMEE transition 10/B2u
 EOMEE transition 11/B2u
 EOMEE transition 12/B2u
 EOMEE transition 13/B2u
 EOMEE transition 14/B2u
 EOMEE transition 15/B2u
 EOMEE transition 1/B3u
 Total energy = -221.04961394 a.u.  Excitation energy = 287.7497 eV.
 EOMEE transition 2/B3u
 Total energy = -221.04785681 a.u.  Excitation energy = 287.7975 eV.
 EOMEE transition 3/B3u
 Total energy = -221.01166295 a.u.  Excitation energy = 288.7824 eV.
 EOMEE transition 4/B3u
 Total energy = -221.01153255 a.u.  Excitation energy = 288.7859 eV.
 EOMEE transition 5/B3u
 Total energy = -221.00986175 a.u.  Excitation energy = 288.8314 eV.
 EOMEE transition 6/B3u
 Total energy = -220.99282894 a.u.  Excitation energy = 289.2949 eV.
 EOMEE transition 7/B3u
 Total energy = -220.99089916 a.u.  Excitation energy = 289.3474 eV.
 EOMEE transition 8/B3u
 Total energy = -220.98893195 a.u.  Excitation energy = 289.4009 eV.
 EOMEE transition 9/B3u
 Total energy = -220.98762568 a.u.  Excitation energy = 289.4364 eV.
 EOMEE transition 10/B3u
 Total energy = -220.98681719 a.u.  Excitation energy = 289.4584 eV.
 EOMEE transition 11/B3u
 Total energy = -220.97742506 a.u.  Excitation energy = 289.7140 eV.
 EOMEE transition 12/B3u
 Total energy = -220.97600000 a.u.  Excitation energy = 289.7528 eV.
 EOMEE transition 13/B3u
 Total energy = -220.96264015 a.u.  Excitation energy = 290.1163 eV.
 EOMEE transition 14/B3u
 Total energy = -220.96170116 a.u.  Excitation energy = 290.1419 eV.
 EOMEE transition 15/B3u
 Total energy = -220.95935031 a.u.  Excitation energy = 290.2059 eV.

             Orbital Energies (a.u.) and Symmetries
 --------------------------------------------------------------

 Alpha MOs, Restricted
 -- Occupied --
-11.239 -11.239 -11.239 -11.237 -11.237 -11.237  -1.153  -1.017
  1 Ag    1 B3u   1 B2u   2 Ag    1 B1g   2 B3u   3 Ag    3 B3u
 -1.017  -0.826  -0.826  -0.712  -0.645  -0.621  -0.590  -0.590
  2 B2u   4 Ag    2 B1g   5 Ag    4 B3u   3 B2u   5 B3u   4 B2u
 -0.502  -0.496  -0.496  -0.337  -0.337
  1 B1u   6 Ag    3 B1g   1 B2g   1 B3g

 Beta MOs, Restricted
 -- Occupied --
-11.239 -11.239 -11.239 -11.237 -11.237 -11.237  -1.153  -1.017
  1 Ag    1 B3u   1 B2u   2 Ag    1 B1g   2 B3u   3 Ag    3 B3u
 -1.017  -0.826  -0.826  -0.712  -0.645  -0.621  -0.590  -0.590
  2 B2u   4 Ag    2 B1g   5 Ag    4 B3u   3 B2u   5 B3u   4 B2u
 -0.502  -0.496  -0.496  -0.337  -0.337
  1 B1u   6 Ag    3 B1g   1 B2g   1 B3g

          Ground-State Mulliken Net Atomic Charges

     Atom                 Charge (a.u.)
  ----------------------------------------
      1 H                     0.192118
      2 C                    -0.192118
      3 C                    -0.192118
      4 H                     0.192118
      5 C                    -0.192118
      6 H                     0.192118
      7 C                    -0.192118
      8 H                     0.192118
      9 C                    -0.192118
     10 H                     0.192118
     11 C                    -0.192118
     12 H                     0.192118
  ----------------------------------------
  Sum of atomic charges =     0.000000

                    Cartesian Multipole Moments
 -----------------------------------------------------------------
    Charge (ESU x 10^10)
                -0.0000
    Dipole Moment (Debye)
         X      -0.0000      Y       0.0000      Z       0.0000
       Tot       0.0000
    Quadrupole Moments (Debye-Ang)
        XX     -31.9206     XY       0.0000     YY     -31.9206
        XZ      -0.0000     YZ       0.0000     ZZ     -41.2888

 Total job time:  13409.76s(wall), 93190.47s(cpu)
        *  Thank you very much for using Q-Chem.  Have a nice day.  *
