 Q-Chem 5.1, Q-Chem, Inc., Pleasanton, CA (2018)
 Q-Chem 5.1.1 for Intel X86 EM64T Linux

User input:
--------------------------------------------------------------
$comment
EOM-CCSD/cc-pVTZ optimized geometry for B3g cation
NEXAFS
basis = 6-311(2+,+)G** (ucC)
$end

$molecule
+1 2
H         1.2392908131   -2.1390691708    0.0000000000
C         0.7225974533   -1.1894682957    0.0000000000
C        -0.7225974533   -1.1894682957    0.0000000000
H        -1.2392908131   -2.1390691708    0.0000000000
C        -1.4341864916    0.0000000000    0.0000000000
H        -2.5128824541    0.0000000000    0.0000000000
C        -0.7225974533    1.1894682957    0.0000000000
H        -1.2392908131    2.1390691708    0.0000000000
C         0.7225974533    1.1894682957    0.0000000000
H         1.2392908131    2.1390691708    0.0000000000
C         1.4341864916    0.0000000000    0.0000000000
H         2.5128824541    0.0000000000    0.0000000000
$end

$rem
   JOB_TYPE  =  SP
   BASIS  =  general
   METHOD  =  EOM-CCSD
   CVS_EE_STATES = [0,0,0,0,0,10,10,10]
   eom_preconv_singles = true
   n_frozen_core = fc
   cc_trans_prop = true
   use_libqints = 1   !use new int library (will be def in trunk)
   cc_memory = 100000
   EOM_DAVIDSON_MAX_ITER 200
   EOM_DAVIDSON_MAXVECTORS = 1000
   eom_davidson_convergence = 4
   eom_shift = 10000
   state_analysis = true
   molden_format  = true
   nto_pairs      = 4
   pop_mulliken   = true
$end

$basis
H    0
6-311(2+,+)G**
****
C    0
S    1    1.000000
   4.56324000E+03    1.96665000E-03
S    1    1.000000
   6.82024000E+02    1.52306000E-02
S    1    1.000000
   1.54973000E+02    7.61269000E-02
S    1    1.000000
   4.44553000E+01    2.60801000E-01
S    1    1.000000
   1.30290000E+01    6.16462000E-01
S    1    1.000000
   1.82773000E+00    2.21006000E-01
SP   3    1.000000
   2.09642000E+01    1.14660000E-01   4.02487000E-02
   4.80331000E+00    9.19999000E-01   2.37594000E-01
   1.45933000E+00   -3.03068000E-03   8.15854000E-01
SP   1    1.000000
   4.83456000E-01    1.00000000E+00   1.00000000E+00
SP   1    1.000000
   1.45585000E-01    1.00000000E+00   1.00000000E+00
SP   1    1.000000
   4.38000000E-02    1.00000000E+00   1.00000000E+00
SP   1    1.000000
   1.31927711E-02    1.00000000E+00   1.00000000E+00
D    1    1.000000
   6.26000000E-01    1.00000000E+00
****
end

--------------------------------------------------------------

             Standard Nuclear Orientation (Angstroms)
    I     Atom           X                Y                Z
 ----------------------------------------------------------------
    1      H      -1.2392908131    -2.1390691708    -0.0000000000
    2      C      -0.7225974533    -1.1894682957    -0.0000000000
    3      C       0.7225974533    -1.1894682957     0.0000000000
    4      H       1.2392908131    -2.1390691708     0.0000000000
    5      C       1.4341864916     0.0000000000     0.0000000000
    6      H       2.5128824541     0.0000000000     0.0000000000
    7      C       0.7225974533     1.1894682957     0.0000000000
    8      H       1.2392908131     2.1390691708     0.0000000000
    9      C      -0.7225974533     1.1894682957    -0.0000000000
   10      H      -1.2392908131     2.1390691708    -0.0000000000
   11      C      -1.4341864916    -0.0000000000    -0.0000000000
   12      H      -2.5128824541    -0.0000000000    -0.0000000000
 ----------------------------------------------------------------

   15    -230.4708827942      6.81e-09  Convergence criterion met
 Total energy in the final basis set =     -230.4708827942
 CCSD total energy           = -231.29326765
        Solving for CVS-EOMEE-CCSD B1u transitions.
 EOMEE transition 1/B1u
 Total energy = -220.94190968 a.u.  Excitation energy = 281.6748 eV.
 EOMEE transition 2/B1u
 Total energy = -220.81569317 a.u.  Excitation energy = 285.1093 eV.
 EOMEE transition 3/B1u
 Total energy = -220.79052458 a.u.  Excitation energy = 285.7942 eV.
 EOMEE transition 4/B1u
 Total energy = -220.76584983 a.u.  Excitation energy = 286.4656 eV.
 EOMEE transition 5/B1u
 Total energy = -220.72671665 a.u.  Excitation energy = 287.5305 eV.
 EOMEE transition 6/B1u
 Total energy = -220.68895516 a.u.  Excitation energy = 288.5580 eV.
 EOMEE transition 7/B1u
 Total energy = -220.67346376 a.u.  Excitation energy = 288.9796 eV.
 EOMEE transition 8/B1u
 Total energy = -220.59344634 a.u.  Excitation energy = 291.1569 eV.
 EOMEE transition 9/B1u
 Total energy = -220.58523048 a.u.  Excitation energy = 291.3805 eV.
 EOMEE transition 10/B1u
 Total energy = -220.56112452 a.u.  Excitation energy = 292.0365 eV.
 Excited state properties for  CVS-EOMEE-CCSD transition 1/B1u
 Excited state properties for  CVS-EOMEE-CCSD transition 2/B1u
 Excited state properties for  CVS-EOMEE-CCSD transition 3/B1u
 Excited state properties for  CVS-EOMEE-CCSD transition 4/B1u
 Excited state properties for  CVS-EOMEE-CCSD transition 5/B1u
 Excited state properties for  CVS-EOMEE-CCSD transition 6/B1u
 Excited state properties for  CVS-EOMEE-CCSD transition 7/B1u
 Excited state properties for  CVS-EOMEE-CCSD transition 8/B1u
 Excited state properties for  CVS-EOMEE-CCSD transition 9/B1u
 Excited state properties for  CVS-EOMEE-CCSD transition 10/B1u
        Solving for CVS-EOMEE-CCSD B2u transitions.
 EOMEE transition 1/B2u
 Total energy = -220.62952636 a.u.  Excitation energy = 290.1752 eV.
 EOMEE transition 2/B2u
 Total energy = -220.60968876 a.u.  Excitation energy = 290.7150 eV.
 EOMEE transition 3/B2u
 EOMEE transition 4/B2u
 EOMEE transition 5/B2u
 EOMEE transition 6/B2u
 Total energy = -220.57250718 a.u.  Excitation energy = 291.7267 eV.
 EOMEE transition 7/B2u
 Total energy = -220.56901500 a.u.  Excitation energy = 291.8218 eV.
 EOMEE transition 8/B2u
 Total energy = -220.56284689 a.u.  Excitation energy = 291.9896 eV.
 EOMEE transition 9/B2u
 Total energy = -220.55646524 a.u.  Excitation energy = 292.1633 eV.
 EOMEE transition 10/B2u
 Total energy = -220.55429634 a.u.  Excitation energy = 292.2223 eV.
 Excited state properties for  CVS-EOMEE-CCSD transition 1/B2u
 Excited state properties for  CVS-EOMEE-CCSD transition 2/B2u
 Excited state properties for  CVS-EOMEE-CCSD transition 3/B2u
 Excited state properties for  CVS-EOMEE-CCSD transition 4/B2u
 Excited state properties for  CVS-EOMEE-CCSD transition 5/B2u
 Excited state properties for  CVS-EOMEE-CCSD transition 6/B2u
 Excited state properties for  CVS-EOMEE-CCSD transition 7/B2u
 Excited state properties for  CVS-EOMEE-CCSD transition 8/B2u
 Excited state properties for  CVS-EOMEE-CCSD transition 9/B2u
 Excited state properties for  CVS-EOMEE-CCSD transition 10/B2u
        Solving for CVS-EOMEE-CCSD B3u transitions.
 EOMEE transition 1/B3u
 Total energy = -220.66275178 a.u.  Excitation energy = 289.2710 eV.
 EOMEE transition 2/B3u
 Total energy = -220.64629068 a.u.  Excitation energy = 289.7190 eV.
 EOMEE transition 3/B3u
 Total energy = -220.63008331 a.u.  Excitation energy = 290.1600 eV.
 EOMEE transition 4/B3u
 Total energy = -220.61521398 a.u.  Excitation energy = 290.5646 eV.
 EOMEE transition 5/B3u
 Total energy = -220.61057535 a.u.  Excitation energy = 290.6908 eV.
 EOMEE transition 6/B3u
 Total energy = -220.60648426 a.u.  Excitation energy = 290.8022 eV.
 EOMEE transition 7/B3u
 Total energy = -220.58912696 a.u.  Excitation energy = 291.2745 eV.
 EOMEE transition 8/B3u
 Total energy = -220.57967963 a.u.  Excitation energy = 291.5316 eV.
 EOMEE transition 9/B3u
 Total energy = -220.57758840 a.u.  Excitation energy = 291.5885 eV.
 EOMEE transition 10/B3u
 Total energy = -220.57003118 a.u.  Excitation energy = 291.7941 eV.
 Excited state properties for  CVS-EOMEE-CCSD transition 1/B3u
 Excited state properties for  CVS-EOMEE-CCSD transition 2/B3u
 Excited state properties for  CVS-EOMEE-CCSD transition 3/B3u
 Excited state properties for  CVS-EOMEE-CCSD transition 4/B3u
 Excited state properties for  CVS-EOMEE-CCSD transition 5/B3u
 Excited state properties for  CVS-EOMEE-CCSD transition 6/B3u
 Excited state properties for  CVS-EOMEE-CCSD transition 7/B3u
 Excited state properties for  CVS-EOMEE-CCSD transition 8/B3u
 Excited state properties for  CVS-EOMEE-CCSD transition 9/B3u
 Excited state properties for  CVS-EOMEE-CCSD transition 10/B3u

             Orbital Energies (a.u.) and Symmetries
 --------------------------------------------------------------

 Alpha MOs, Unrestricted
 -- Occupied --
-11.498 -11.498 -11.497 -11.497 -11.442 -11.442  -1.393  -1.263
  1 B2u   1 Ag    1 B3u   1 B1g   2 B3u   2 Ag    3 Ag    2 B2u
 -1.247  -1.066  -1.048  -0.934  -0.869  -0.853  -0.816  -0.812
  3 B3u   2 B1g   4 Ag    5 Ag    4 B3u   3 B2u   4 B2u   5 B3u
 -0.749  -0.727  -0.716  -0.609  -0.557
  1 B1u   3 B1g   6 Ag    1 B3g   1 B2g

 Beta MOs, Unrestricted
 -- Occupied --
-11.490 -11.490 -11.489 -11.489 -11.449 -11.449  -1.370  -1.251
  1 Ag    1 B2u   1 B3u   1 B1g   2 B3u   2 Ag    3 Ag    3 B3u
 -1.212  -1.045  -1.042  -0.930  -0.862  -0.847  -0.814  -0.806
  2 B2u   2 B1g   4 Ag    5 Ag    4 B3u   3 B2u   5 B3u   4 B2u
 -0.725  -0.711  -0.668  -0.576
  3 B1g   6 Ag    1 B1u   1 B2g

 Total job time:  18411.46s(wall), 129287.55s(cpu)
        *  Thank you very much for using Q-Chem.  Have a nice day.  *

          Ground-State Mulliken Net Atomic Charges

     Atom                 Charge (a.u.)    Spin (a.u.)
  --------------------------------------------------------
      1 H                     0.303226      -0.034125
      2 C                    -0.058540       0.500830
      3 C                    -0.058540       0.500830
      4 H                     0.303226      -0.034125
      5 C                    -0.269821      -0.452676
      6 H                     0.280450       0.019265
      7 C                    -0.058540       0.500830
      8 H                     0.303226      -0.034125
      9 C                    -0.058540       0.500830
     10 H                     0.303226      -0.034125
     11 C                    -0.269821      -0.452676
     12 H                     0.280450       0.019265
  --------------------------------------------------------
  Sum of atomic charges =     1.000000

                    Cartesian Multipole Moments
 -----------------------------------------------------------------
    Charge (ESU x 10^10)
                 4.8032
    Dipole Moment (Debye)
         X       0.0000      Y       0.0000      Z       0.0000
       Tot       0.0000
    Quadrupole Moments (Debye-Ang)
        XX     -22.2030     XY       0.0000     YY     -18.3226
        XZ      -0.0000     YZ       0.0000     ZZ     -36.1624
