 Q-Chem 5.1, Q-Chem, Inc., Pleasanton, CA (2018)
 Q-Chem 5.1.1 for Intel X86 EM64T Linux

User input:
--------------------------------------------------------------
$commen
RI-MP2/cc-pVTZ optimized geometry for neutral species
NEXAFS
basis = 6-311(2+,+)G** (ucC)
$end

$molecule
+1 2
H       2.4750347531     0.0000000000     0.0000000000
C       1.3935929418     0.0000000000     0.0000000000
C       0.6967964709     1.2068868901     0.0000000000
H       1.2375173766     2.1434429715     0.0000000000
C      -0.6967964709     1.2068868901     0.0000000000
H      -1.2375173766     2.1434429715     0.0000000000
C      -1.3935929418    -0.0000000000     0.0000000000
H      -2.4750347531    -0.0000000000     0.0000000000
C      -0.6967964709    -1.2068868901     0.0000000000
H      -1.2375173766    -2.1434429715     0.0000000000
C       0.6967964709    -1.2068868901     0.0000000000
H       1.2375173766    -2.1434429715     0.0000000000
$end

$rem
   JOB_TYPE  =  SP
   BASIS  =  general
   METHOD  =  EOM-CCSD
   CVS_EE_STATES = [0,0,0,0,0,10,10,10]
   eom_preconv_singles = true
   n_frozen_core = fc
   cc_trans_prop = true
   use_libqints = 1   !use new int library (will be def in trunk)
   cc_memory = 100000
   EOM_DAVIDSON_MAX_ITER 200
   EOM_DAVIDSON_MAXVECTORS = 1000
   eom_davidson_convergence = 4
   eom_shift = 10000
   state_analysis = true
   molden_format  = true
   nto_pairs      = 4
   pop_mulliken   = true
$end

$basis
H    0
6-311(2+,+)G**
****
C    0
S    1    1.000000
   4.56324000E+03    1.96665000E-03
S    1    1.000000
   6.82024000E+02    1.52306000E-02
S    1    1.000000
   1.54973000E+02    7.61269000E-02
S    1    1.000000
   4.44553000E+01    2.60801000E-01
S    1    1.000000
   1.30290000E+01    6.16462000E-01
S    1    1.000000
   1.82773000E+00    2.21006000E-01
SP   3    1.000000
   2.09642000E+01    1.14660000E-01   4.02487000E-02
   4.80331000E+00    9.19999000E-01   2.37594000E-01
   1.45933000E+00   -3.03068000E-03   8.15854000E-01
SP   1    1.000000
   4.83456000E-01    1.00000000E+00   1.00000000E+00
SP   1    1.000000
   1.45585000E-01    1.00000000E+00   1.00000000E+00
SP   1    1.000000
   4.38000000E-02    1.00000000E+00   1.00000000E+00
SP   1    1.000000
   1.31927711E-02    1.00000000E+00   1.00000000E+00
D    1    1.000000
   6.26000000E-01    1.00000000E+00
****
end

--------------------------------------------------------------

             Standard Nuclear Orientation (Angstroms)
    I     Atom           X                Y                Z
 ----------------------------------------------------------------
    1      H       2.4750347531     0.0000000000    -0.0000000000
    2      C       1.3935929418     0.0000000000    -0.0000000000
    3      C       0.6967964709     1.2068868901     0.0000000000
    4      H       1.2375173766     2.1434429715     0.0000000000
    5      C      -0.6967964709     1.2068868901     0.0000000000
    6      H      -1.2375173766     2.1434429715     0.0000000000
    7      C      -1.3935929418     0.0000000000     0.0000000000
    8      H      -2.4750347531     0.0000000000     0.0000000000
    9      C      -0.6967964709    -1.2068868901    -0.0000000000
   10      H      -1.2375173766    -2.1434429715    -0.0000000000
   11      C       0.6967964709    -1.2068868901    -0.0000000000
   12      H       1.2375173766    -2.1434429715    -0.0000000000
 ----------------------------------------------------------------

   18    -230.4654400334      9.06e-09  Convergence criterion met
 Total energy in the final basis set =     -230.4654400334
 CCSD total energy           = -231.28706193
        Solving for CVS-EOMEE-CCSD B1u transitions.
 EOMEE transition 1/B1u
 Total energy = -220.94699615 a.u.  Excitation energy = 281.3675 eV.
 EOMEE transition 2/B1u
 Total energy = -220.81307776 a.u.  Excitation energy = 285.0116 eV.
 EOMEE transition 3/B1u
 Total energy = -220.78028826 a.u.  Excitation energy = 285.9039 eV.
 EOMEE transition 4/B1u
 Total energy = -220.76387403 a.u.  Excitation energy = 286.3505 eV.
 EOMEE transition 5/B1u
 Total energy = -220.71893589 a.u.  Excitation energy = 287.5733 eV.
 EOMEE transition 6/B1u
 Total energy = -220.68756631 a.u.  Excitation energy = 288.4269 eV.
 EOMEE transition 7/B1u
 Total energy = -220.67088774 a.u.  Excitation energy = 288.8808 eV.
 EOMEE transition 8/B1u
 Total energy = -220.58953166 a.u.  Excitation energy = 291.0946 eV.
 EOMEE transition 9/B1u
 Total energy = -220.58121990 a.u.  Excitation energy = 291.3208 eV.
 EOMEE transition 10/B1u
 Total energy = -220.55467514 a.u.  Excitation energy = 292.0431 eV.
 Excited state properties for  CVS-EOMEE-CCSD transition 1/B1u
 Excited state properties for  CVS-EOMEE-CCSD transition 2/B1u
 Excited state properties for  CVS-EOMEE-CCSD transition 3/B1u
 Excited state properties for  CVS-EOMEE-CCSD transition 4/B1u
 Excited state properties for  CVS-EOMEE-CCSD transition 5/B1u
 Excited state properties for  CVS-EOMEE-CCSD transition 6/B1u
 Excited state properties for  CVS-EOMEE-CCSD transition 7/B1u
 Excited state properties for  CVS-EOMEE-CCSD transition 8/B1u
 Excited state properties for  CVS-EOMEE-CCSD transition 9/B1u
 Excited state properties for  CVS-EOMEE-CCSD transition 10/B1u
        Solving for CVS-EOMEE-CCSD B2u transitions.
 EOMEE transition 1/B2u
 Total energy = -220.62575809 a.u.  Excitation energy = 290.1088 eV.
 EOMEE transition 2/B2u
 Total energy = -220.60592955 a.u.  Excitation energy = 290.6484 eV.
 EOMEE transition 3/B2u
 EOMEE transition 4/B2u
 EOMEE transition 5/B2u
 EOMEE transition 6/B2u
 Total energy = -220.56522265 a.u.  Excitation energy = 291.7561 eV.
 EOMEE transition 7/B2u
 Total energy = -220.56520839 a.u.  Excitation energy = 291.7565 eV.
 EOMEE transition 8/B2u
 Total energy = -220.55628015 a.u.  Excitation energy = 291.9994 eV.
 EOMEE transition 9/B2u
 Total energy = -220.55164870 a.u.  Excitation energy = 292.1255 eV.
 EOMEE transition 10/B2u
 Total energy = -220.54422193 a.u.  Excitation energy = 292.3275 eV.
 Excited state properties for  CVS-EOMEE-CCSD transition 1/B2u
 Excited state properties for  CVS-EOMEE-CCSD transition 2/B2u
 Excited state properties for  CVS-EOMEE-CCSD transition 3/B2u
 Excited state properties for  CVS-EOMEE-CCSD transition 4/B2u
 Excited state properties for  CVS-EOMEE-CCSD transition 5/B2u
 Excited state properties for  CVS-EOMEE-CCSD transition 6/B2u
 Excited state properties for  CVS-EOMEE-CCSD transition 7/B2u
 Excited state properties for  CVS-EOMEE-CCSD transition 8/B2u
 Excited state properties for  CVS-EOMEE-CCSD transition 9/B2u
 Excited state properties for  CVS-EOMEE-CCSD transition 10/B2u
        Solving for CVS-EOMEE-CCSD B3u transitions.
 EOMEE transition 1/B3u
 Total energy = -220.65790026 a.u.  Excitation energy = 289.2342 eV.
 EOMEE transition 2/B3u
 Total energy = -220.64178108 a.u.  Excitation energy = 289.6728 eV.
 EOMEE transition 3/B3u
 Total energy = -220.62646632 a.u.  Excitation energy = 290.0896 eV.
 EOMEE transition 4/B3u
 Total energy = -220.61083195 a.u.  Excitation energy = 290.5150 eV.
 EOMEE transition 5/B3u
 Total energy = -220.60702736 a.u.  Excitation energy = 290.6185 eV.
 EOMEE transition 6/B3u
 Total energy = -220.60225964 a.u.  Excitation energy = 290.7483 eV.
 EOMEE transition 7/B3u
 Total energy = -220.58548911 a.u.  Excitation energy = 291.2046 eV.
 EOMEE transition 8/B3u
 Total energy = -220.57581790 a.u.  Excitation energy = 291.4678 eV.
 EOMEE transition 9/B3u
 Total energy = -220.57383853 a.u.  Excitation energy = 291.5216 eV.
 EOMEE transition 10/B3u
 Total energy = -220.56647563 a.u.  Excitation energy = 291.7220 eV.
 Excited state properties for  CVS-EOMEE-CCSD transition 1/B3u
 Excited state properties for  CVS-EOMEE-CCSD transition 2/B3u
 Excited state properties for  CVS-EOMEE-CCSD transition 3/B3u
 Excited state properties for  CVS-EOMEE-CCSD transition 4/B3u
 Excited state properties for  CVS-EOMEE-CCSD transition 5/B3u
 Excited state properties for  CVS-EOMEE-CCSD transition 6/B3u
 Excited state properties for  CVS-EOMEE-CCSD transition 7/B3u
 Excited state properties for  CVS-EOMEE-CCSD transition 8/B3u
 Excited state properties for  CVS-EOMEE-CCSD transition 9/B3u
 Excited state properties for  CVS-EOMEE-CCSD transition 10/B3u

             Orbital Energies (a.u.) and Symmetries
 --------------------------------------------------------------

 Alpha MOs, Unrestricted
 -- Occupied --
-11.495 -11.495 -11.494 -11.494 -11.442 -11.442  -1.403  -1.282
  1 B2u   1 Ag    1 B3u   1 B1g   2 B3u   2 Ag    3 Ag    2 B2u
 -1.238  -1.063  -1.057  -0.938  -0.866  -0.860  -0.830  -0.801
  3 B3u   2 B1g   4 Ag    5 Ag    4 B3u   3 B2u   4 B2u   5 B3u
 -0.757  -0.723  -0.720  -0.625  -0.547
  1 B1u   3 B1g   6 Ag    1 B3g   1 B2g

 Beta MOs, Unrestricted
 -- Occupied --
-11.487 -11.487 -11.486 -11.486 -11.449 -11.449  -1.377  -1.242
  1 Ag    1 B2u   1 B3u   1 B1g   2 B3u   2 Ag    3 Ag    3 B3u
 -1.229  -1.051  -1.042  -0.934  -0.860  -0.853  -0.821  -0.803
  2 B2u   4 Ag    2 B1g   5 Ag    4 B3u   3 B2u   4 B2u   5 B3u
 -0.721  -0.716  -0.670  -0.569
  3 B1g   6 Ag    1 B1u   1 B2g

 Total job time:  26755.81s(wall), 159050.24s(cpu)
        *  Thank you very much for using Q-Chem.  Have a nice day.  *

          Ground-State Mulliken Net Atomic Charges

     Atom                 Charge (a.u.)    Spin (a.u.)
  --------------------------------------------------------
      1 H                     0.276428       0.019705
      2 C                    -0.271064      -0.453971
      3 C                    -0.058160       0.500446
      4 H                     0.305481      -0.033307
      5 C                    -0.058163       0.500432
      6 H                     0.305480      -0.033306
      7 C                    -0.271064      -0.453971
      8 H                     0.276428       0.019705
      9 C                    -0.058160       0.500446
     10 H                     0.305481      -0.033307
     11 C                    -0.058163       0.500432
     12 H                     0.305480      -0.033306
  --------------------------------------------------------
  Sum of atomic charges =     1.000000

                    Cartesian Multipole Moments
 -----------------------------------------------------------------
    Charge (ESU x 10^10)
                 4.8032
    Dipole Moment (Debye)
         X       0.0000      Y       0.0000      Z      -0.0000
       Tot       0.0000
    Quadrupole Moments (Debye-Ang)
        XX     -22.8122     XY       0.0000     YY     -17.9126
        XZ      -0.0000     YZ      -0.0000     ZZ     -36.0327
