 Q-Chem 5.1, Q-Chem, Inc., Pleasanton, CA (2018)
 Q-Chem 5.1.1 for Intel X86 EM64T Linux

User input:
--------------------------------------------------------------
$comment
EOM-CCSD/cc-pVTZ optimized geometry for B2 cation
NEXAFS
basis = 6-311(2+,+)G** (ucC)
$end

$molecule
+1 2
H        -2.1662499668    0.0000000000   -0.1600072082
C        -1.2443769763    0.0000000000   -0.7219689559
C        -1.2333299872    0.0000000000   -2.0931459334
H        -2.1593433045    0.0000000000   -2.6479580489
C         0.0000000000    0.0000000000   -2.7829651288
H         0.0000000000    0.0000000000   -3.8640997101
C         1.2333299872    0.0000000000   -2.0931459334
H         2.1593433045    0.0000000000   -2.6479580489
C         1.2443769763    0.0000000000   -0.7219689559
H         2.1662499668    0.0000000000   -0.1600072082
C         0.0000000000    0.0000000000   -0.0294844137
Br        0.0000000000    0.0000000000    1.7909661055
$end

$rem
   JOB_TYPE  =  SP
   BASIS  =  general
   METHOD  =  EOM-CCSD
   CVS_EE_STATES = [10,10,10,10]
   eom_preconv_singles = true
   n_frozen_core = 7
   cc_trans_prop = true
   use_libqints = 1   !use new int library (will be def in trunk)
   cc_memory = 100000
   EOM_DAVIDSON_MAX_ITER 200
   EOM_DAVIDSON_MAXVECTORS = 1000
   eom_davidson_convergence = 4
   eom_shift = 10000
$end

$basis
H    0
6-311(2+,+)G**
****
Br   0
6-311(2+,+)G**
****
C    0
S    1    1.000000
   4.56324000E+03    1.96665000E-03
S    1    1.000000
   6.82024000E+02    1.52306000E-02
S    1    1.000000
   1.54973000E+02    7.61269000E-02
S    1    1.000000
   4.44553000E+01    2.60801000E-01
S    1    1.000000
   1.30290000E+01    6.16462000E-01
S    1    1.000000
   1.82773000E+00    2.21006000E-01
SP   3    1.000000
   2.09642000E+01    1.14660000E-01   4.02487000E-02
   4.80331000E+00    9.19999000E-01   2.37594000E-01
   1.45933000E+00   -3.03068000E-03   8.15854000E-01
SP   1    1.000000
   4.83456000E-01    1.00000000E+00   1.00000000E+00
SP   1    1.000000
   1.45585000E-01    1.00000000E+00   1.00000000E+00
SP   1    1.000000
   4.38000000E-02    1.00000000E+00   1.00000000E+00
SP   1    1.000000
   1.31927711E-02    1.00000000E+00   1.00000000E+00
D    1    1.000000
   6.26000000E-01    1.00000000E+00
****
end

--------------------------------------------------------------

             Standard Nuclear Orientation (Angstroms)
    I     Atom           X                Y                Z
 ----------------------------------------------------------------
    1      H      -2.1662499668     0.0000000000    -0.1935296759
    2      C      -1.2443769763    -0.0000000000    -0.7554914236
    3      C      -1.2333299872    -0.0000000000    -2.1266684011
    4      H      -2.1593433045    -0.0000000000    -2.6814805166
    5      C       0.0000000000    -0.0000000000    -2.8164875965
    6      H       0.0000000000    -0.0000000000    -3.8976221778
    7      C       1.2333299872    -0.0000000000    -2.1266684011
    8      H       2.1593433045    -0.0000000000    -2.6814805166
    9      C       1.2443769763    -0.0000000000    -0.7554914236
   10      H       2.1662499668    -0.0000000000    -0.1935296759
   11      C       0.0000000000    -0.0000000000    -0.0630068814
   12      Br     -0.0000000000     0.0000000000     1.7574436378
 ----------------------------------------------------------------

   27   -2802.2517072334      7.14e-09  Convergence criterion met
 Total energy in the final basis set =    -2802.2517072334
 CCSD total energy           = -2803.56982689
        Solving for CVS-EOMEE-CCSD A1 transitions.
 EOMEE transition 1/A1
 Total energy = -2792.98133603 a.u.  Excitation energy = 288.1275 eV.
 EOMEE transition 2/A1
 Total energy = -2792.93431360 a.u.  Excitation energy = 289.4070 eV.
 EOMEE transition 3/A1
 Total energy = -2792.90099887 a.u.  Excitation energy = 290.3136 eV.
 EOMEE transition 4/A1
 Total energy = -2792.88276048 a.u.  Excitation energy = 290.8099 eV.
 EOMEE transition 5/A1
 Total energy = -2792.85266700 a.u.  Excitation energy = 291.6288 eV.
 EOMEE transition 6/A1
 Total energy = -2792.84543649 a.u.  Excitation energy = 291.8255 eV.
 EOMEE transition 7/A1
 Total energy = -2792.83936560 a.u.  Excitation energy = 291.9907 eV.
 EOMEE transition 8/A1
 Total energy = -2792.83096640 a.u.  Excitation energy = 292.2193 eV.
 EOMEE transition 9/A1
 Total energy = -2792.83000577 a.u.  Excitation energy = 292.2454 eV.
 EOMEE transition 10/A1
 Total energy = -2792.82340115 a.u.  Excitation energy = 292.4251 eV.
        Solving for CVS-EOMEE-CCSD A2 transitions.
 EOMEE transition 1/A2
 Total energy = -2792.96304211 a.u.  Excitation energy = 288.6253 eV.
 EOMEE transition 2/A2
 Total energy = -2792.93782255 a.u.  Excitation energy = 289.3116 eV.
 EOMEE transition 3/A2
 EOMEE transition 4/A2
 EOMEE transition 5/A2
 EOMEE transition 6/A2
 EOMEE transition 7/A2
 EOMEE transition 8/A2
 EOMEE transition 9/A2
 EOMEE transition 10/A2
        Solving for CVS-EOMEE-CCSD B1 transitions.
 EOMEE transition 1/B1
 EOMEE transition 2/B1
 EOMEE transition 3/B1
 EOMEE transition 4/B1
 EOMEE transition 5/B1
 EOMEE transition 6/B1
 Total energy = -2792.76018601 a.u.  Excitation energy = 294.1453 eV.
 EOMEE transition 7/B1
 Total energy = -2792.75407452 a.u.  Excitation energy = 294.3116 eV.
 EOMEE transition 8/B1
 Total energy = -2792.74945946 a.u.  Excitation energy = 294.4372 eV.
 EOMEE transition 9/B1
 Total energy = -2792.74588263 a.u.  Excitation energy = 294.5345 eV.
 EOMEE transition 10/B1
 Total energy = -2792.74410445 a.u.  Excitation energy = 294.5829 eV.
        Solving for CVS-EOMEE-CCSD B2 transitions.
 EOMEE transition 1/B2
 Total energy = -2793.18695099 a.u.  Excitation energy = 282.5324 eV.
 EOMEE transition 2/B2
 Total energy = -2793.17093601 a.u.  Excitation energy = 282.9682 eV.
 EOMEE transition 3/B2
 Total energy = -2793.04889188 a.u.  Excitation energy = 286.2892 eV.
 EOMEE transition 4/B2
 Total energy = -2793.02267849 a.u.  Excitation energy = 287.0025 eV.
 EOMEE transition 5/B2
 Total energy = -2792.98580970 a.u.  Excitation energy = 288.0058 eV.
 EOMEE transition 6/B2
 Total energy = -2792.95004744 a.u.  Excitation energy = 288.9789 eV.
 EOMEE transition 7/B2
 Total energy = -2792.83087697 a.u.  Excitation energy = 292.2217 eV.
 EOMEE transition 8/B2
 Total energy = -2792.82193917 a.u.  Excitation energy = 292.4649 eV.
 EOMEE transition 9/B2
 Total energy = -2792.81789226 a.u.  Excitation energy = 292.5750 eV.
 EOMEE transition 10/B2
 Total energy = -2792.79671955 a.u.  Excitation energy = 293.1512 eV.

             Orbital Energies (a.u.) and Symmetries
 --------------------------------------------------------------

 Alpha MOs, Unrestricted
 -- Occupied --
-490.24  -65.37  -58.73  -58.73  -58.73  -11.56  -11.48  -11.47
  1 A1    2 A1    3 A1    1 B2    1 B1    4 A1    5 A1    2 B1
-11.471 -11.453 -11.453 -10.053  -7.666  -7.661  -7.656  -3.406
  6 A1    3 B1    7 A1    8 A1    9 A1    2 B2    4 B1   10 A1
 -3.403  -3.400  -3.392  -3.392  -1.406  -1.302  -1.248  -1.195
  3 B2    5 B1    1 A2   11 A1   12 A1   13 A1    6 B1   14 A1
 -1.054  -1.032  -0.918  -0.861  -0.846  -0.814  -0.788  -0.768
  7 B1   15 A1   16 A1    8 B1   17 A1    9 B1   18 A1    4 B2
 -0.719  -0.712  -0.659  -0.616  -0.570  -0.562
 10 B1   19 A1    5 B2   11 B1    6 B2    2 A2

 Beta MOs, Unrestricted
 -- Occupied --
-490.24  -65.37  -58.73  -58.73  -58.73  -11.56  -11.47  -11.47
  1 A1    2 A1    3 A1    1 B1    1 B2    4 A1    5 A1    2 B1
-11.466 -11.459 -11.459 -10.051  -7.666  -7.656  -7.655  -3.406
  6 A1    3 B1    7 A1    8 A1    9 A1    4 B1    2 B2   10 A1
 -3.402  -3.400  -3.390  -3.390  -1.382  -1.284  -1.249  -1.160
  3 B2    5 B1    1 A2   11 A1   12 A1   13 A1    6 B1   14 A1
 -1.048  -1.018  -0.911  -0.856  -0.841  -0.815  -0.778  -0.715
  7 B1   15 A1   16 A1    8 B1   17 A1    9 B1   18 A1   10 B1
 -0.709  -0.690  -0.612  -0.602  -0.569
 19 A1    4 B2   11 B1    5 B2    2 A2

          Ground-State Mulliken Net Atomic Charges

     Atom                 Charge (a.u.)    Spin (a.u.)
  --------------------------------------------------------
      1 H                     0.336813      -0.028258
      2 C                    -0.190760       0.261605
      3 C                    -0.172915      -0.421415
      4 H                     0.311705       0.022085
      5 C                    -0.273495       0.803389
      6 H                     0.284142      -0.050362
      7 C                    -0.172915      -0.421415
      8 H                     0.311705       0.022085
      9 C                    -0.190760       0.261605
Archival summary:
1\1\n-62-29-33\SP\ProcedureUnspecified\BasisUnspecified\r165(1+,2)\malop\SunDec904:19:572018SunDec904:19:572018\0\\#,ProcedureUnspecified,BasisUnspecified,\\1,2\Br\C,1,1.82045\C,2,1.42408,1,119.096\H,3,1.07965,2,119.539,1,0,0\C,3,1.37122,2,118.634,1,180,0\H,5,1.0795,3,120.466,2,180,0\C,5,1.41314,3,119.681,2,0,0\H,7,1.08113,5,119.219,3,-180,0\C,7,1.41314,5,121.562,3,-0,0\H,9,1.0795,7,119.854,5,-180,0\C,9,1.37122,7,119.681,5,0,0\H,11,1.07965,9,121.828,7,180,0\\HF=-2802.25171\\@

 Total job time:  169282.12s(wall), 501982.90s(cpu)
 Sun Dec  9 04:19:57 2018

        *************************************************************
        *                                                           *
        *  Thank you very much for using Q-Chem.  Have a nice day.  *
        *                                                           *
        *************************************************************

     10 H                     0.336813      -0.028258
     11 C                     0.449783       0.417287
     12 Br                   -0.030115       0.161652
  --------------------------------------------------------
  Sum of atomic charges =     1.000000

                    Cartesian Multipole Moments
 -----------------------------------------------------------------
    Charge (ESU x 10^10)
                 4.8032
    Dipole Moment (Debye)
         X      -0.0000      Y       0.0000      Z      -5.1640
       Tot       5.1640
    Quadrupole Moments (Debye-Ang)
        XX     -39.1742     XY      -0.0000     YY     -53.3781
        XZ      -0.0000     YZ       0.0000     ZZ     -24.6254
