 Q-Chem 5.1, Q-Chem, Inc., Pleasanton, CA (2018)
 Q-Chem 5.1.1 for Intel X86 EM64T Linux

User input:
--------------------------------------------------------------
$commen
RI-MP2/cc-pVTZ optimized geometry for neutral species
NEXAFS
basis = 6-311(2+,+)G** (ucC)
$end

$molecule
+1 2
H      -2.1434404908     0.0000000000    -0.2235906397
C      -1.2132672529    -0.0000000000    -0.7727863601
C      -1.2050294832    -0.0000000000    -2.1658702173
H      -2.1443854307    -0.0000000000    -2.7014917948
C       0.0000000000    -0.0000000000    -2.8650776091
H       0.0000000000    -0.0000000000    -3.9458877158
C       1.2050294832    -0.0000000000    -2.1658702173
H       2.1443854307    -0.0000000000    -2.7014917948
C       1.2132672529    -0.0000000000    -0.7727863601
H       2.1434404908    -0.0000000000    -0.2235906397
C      -0.0000000000    -0.0000000000    -0.0899907575
Br     -0.0000000000     0.0000000000     1.7940097632
$end

$rem
   JOB_TYPE  =  SP
   BASIS  =  general
   METHOD  =  EOM-CCSD
   CVS_EE_STATES = [6,6,6,6]
   eom_preconv_singles = true
   n_frozen_core = 7
   cc_trans_prop = true
   use_libqints = 1   !use new int library (will be def in trunk)
   cc_memory = 100000
   EOM_DAVIDSON_MAX_ITER 200
   EOM_DAVIDSON_MAXVECTORS = 1000
   eom_davidson_convergence = 4
   eom_shift = 10000
$end

$basis
H    0
6-311(2+,+)G**
****
Br   0
6-311(2+,+)G**
****
C    0
S    1    1.000000
   4.56324000E+03    1.96665000E-03
S    1    1.000000
   6.82024000E+02    1.52306000E-02
S    1    1.000000
   1.54973000E+02    7.61269000E-02
S    1    1.000000
   4.44553000E+01    2.60801000E-01
S    1    1.000000
   1.30290000E+01    6.16462000E-01
S    1    1.000000
   1.82773000E+00    2.21006000E-01
SP   3    1.000000
   2.09642000E+01    1.14660000E-01   4.02487000E-02
   4.80331000E+00    9.19999000E-01   2.37594000E-01
   1.45933000E+00   -3.03068000E-03   8.15854000E-01
SP   1    1.000000
   4.83456000E-01    1.00000000E+00   1.00000000E+00
SP   1    1.000000
   1.45585000E-01    1.00000000E+00   1.00000000E+00
SP   1    1.000000
   4.38000000E-02    1.00000000E+00   1.00000000E+00
SP   1    1.000000
   1.31927711E-02    1.00000000E+00   1.00000000E+00
D    1    1.000000
   6.26000000E-01    1.00000000E+00
****
end

--------------------------------------------------------------

             Standard Nuclear Orientation (Angstroms)
    I     Atom           X                Y                Z
 ----------------------------------------------------------------
    1      H      -2.1434404908     0.0000000000    -0.2235906397
    2      C      -1.2132672529     0.0000000000    -0.7727863601
    3      C      -1.2050294832     0.0000000000    -2.1658702173
    4      H      -2.1443854307     0.0000000000    -2.7014917948
    5      C       0.0000000000     0.0000000000    -2.8650776091
    6      H       0.0000000000     0.0000000000    -3.9458877158
    7      C       1.2050294832    -0.0000000000    -2.1658702173
    8      H       2.1443854307    -0.0000000000    -2.7014917948
    9      C       1.2132672529    -0.0000000000    -0.7727863601
   10      H       2.1434404908    -0.0000000000    -0.2235906397
   11      C       0.0000000000     0.0000000000    -0.0899907575
   12      Br     -0.0000000000    -0.0000000000     1.7940097632
 ----------------------------------------------------------------

   29   -2802.2450355726      6.59e-09  Convergence criterion met
 Total energy in the final basis set =    -2802.2450355726
 CCSD total energy           = -2803.54782957
        Solving for CVS-EOMEE-CCSD A1 transitions.
 EOMEE transition 1/A1
 Total energy = -2792.98426696 a.u.  Excitation energy = 287.4492 eV.
 EOMEE transition 2/A1
 Total energy = -2792.93693330 a.u.  Excitation energy = 288.7372 eV.
 EOMEE transition 3/A1
 Total energy = -2792.86444206 a.u.  Excitation energy = 290.7098 eV.
 EOMEE transition 4/A1
 Total energy = -2792.82700265 a.u.  Excitation energy = 291.7285 eV.
 EOMEE transition 5/A1
 Total energy = -2792.82156549 a.u.  Excitation energy = 291.8765 eV.
 EOMEE transition 6/A1
 Total energy = -2792.78478910 a.u.  Excitation energy = 292.8772 eV.
        Solving for CVS-EOMEE-CCSD A2 transitions.
 EOMEE transition 1/A2
 Total energy = -2792.93887762 a.u.  Excitation energy = 288.6843 eV.
 EOMEE transition 2/A2
 Total energy = -2792.90046654 a.u.  Excitation energy = 289.7295 eV.
 EOMEE transition 3/A2
 Total energy = -2792.88667708 a.u.  Excitation energy = 290.1047 eV.
 EOMEE transition 4/A2
 Total energy = -2792.87095258 a.u.  Excitation energy = 290.5326 eV.
 EOMEE transition 5/A2
 Total energy = -2792.72340433 a.u.  Excitation energy = 294.5476 eV.
 EOMEE transition 6/A2
 Total energy = -2792.70747477 a.u.  Excitation energy = 294.9811 eV.
        Solving for CVS-EOMEE-CCSD B1 transitions.
 EOMEE transition 1/B1
 Total energy = -2792.79693818 a.u.  Excitation energy = 292.5466 eV.
 EOMEE transition 2/B1
 Total energy = -2792.76888036 a.u.  Excitation energy = 293.3101 eV.
 EOMEE transition 3/B1
 Total energy = -2792.76405277 a.u.  Excitation energy = 293.4415 eV.
 EOMEE transition 4/B1
 Total energy = -2792.75488064 a.u.  Excitation energy = 293.6911 eV.
 EOMEE transition 5/B1
 Total energy = -2792.72679340 a.u.  Excitation energy = 294.4554 eV.
 EOMEE transition 6/B1
 Total energy = -2792.72589939 a.u.  Excitation energy = 294.4797 eV.
        Solving for CVS-EOMEE-CCSD B2 transitions.
 EOMEE transition 1/B2
 Total energy = -2793.15919080 a.u.  Excitation energy = 282.6892 eV.
 EOMEE transition 2/B2
 Total energy = -2793.01217500 a.u.  Excitation energy = 286.6897 eV.
 EOMEE transition 3/B2
 Total energy = -2792.99344139 a.u.  Excitation energy = 287.1995 eV.
 EOMEE transition 4/B2
 Total energy = -2792.92347499 a.u.  Excitation energy = 289.1034 eV.
 EOMEE transition 5/B2
 Total energy = -2792.79887745 a.u.  Excitation energy = 292.4939 eV.
 EOMEE transition 6/B2
 Total energy = -2792.78568701 a.u.  Excitation energy = 292.8528 eV.

             Orbital Energies (a.u.) and Symmetries
 --------------------------------------------------------------

 Alpha MOs, Unrestricted
 -- Occupied --
-490.24  -65.37  -58.73  -58.73  -58.73  -11.56  -11.48  -11.47
  1 A1    2 A1    3 A1    1 B2    1 B1    4 A1    5 A1    2 B1
-11.473 -11.454 -11.454 -10.050  -7.663  -7.658  -7.653  -3.404
  6 A1    3 B1    7 A1    8 A1    9 A1    2 B2    4 B1   10 A1
 -3.401  -3.397  -3.389  -3.389  -1.413  -1.300  -1.246  -1.199
  3 B2    5 B1    1 A2   11 A1   12 A1   13 A1    6 B1   14 A1
 -1.062  -1.032  -0.922  -0.866  -0.844  -0.809  -0.793  -0.774
  7 B1   15 A1   16 A1    8 B1   17 A1    9 B1   18 A1    4 B2
 -0.723  -0.703  -0.656  -0.614  -0.581  -0.560
 10 B1   19 A1    5 B2   11 B1    6 B2    2 A2

 Beta MOs, Unrestricted
 -- Occupied --
-490.24  -65.37  -58.73  -58.73  -58.73  -11.56  -11.47  -11.47
  1 A1    2 A1    3 A1    1 B1    1 B2    4 A1    2 B1    5 A1
-11.465 -11.461 -11.461 -10.049  -7.663  -7.653  -7.652  -3.403
  6 A1    3 B1    7 A1    8 A1    9 A1    4 B1    2 B2   10 A1
 -3.399  -3.397  -3.387  -3.387  -1.386  -1.277  -1.244  -1.169
  3 B2    5 B1    1 A2   11 A1   12 A1   13 A1    6 B1   14 A1
 -1.056  -1.019  -0.915  -0.860  -0.839  -0.809  -0.783  -0.720
  7 B1   15 A1   16 A1    8 B1   17 A1    9 B1   18 A1   10 B1
 -0.701  -0.690  -0.611  -0.599  -0.564
 19 A1    4 B2   11 B1    5 B2    2 A2

          Ground-State Mulliken Net Atomic Charges

     Atom                 Charge (a.u.)    Spin (a.u.)
  --------------------------------------------------------
      1 H                     0.338640      -0.031697
      2 C                    -0.181632       0.293947
      3 C                    -0.174781      -0.453596
      4 H                     0.311768       0.024469
      5 C                    -0.289268       0.795433
      6 H                     0.286390      -0.046928
      7 C                    -0.174781      -0.453596
      8 H                     0.311768       0.024469
      9 C                    -0.181632       0.293947
Archival summary:
1\1\n-62-23-4\SP\ProcedureUnspecified\BasisUnspecified\r165(1+,2)\malop\WedDec1211:48:022018WedDec1211:48:022018\0\\#,ProcedureUnspecified,BasisUnspecified,\\1,2\Br\C,1,1.884\C,2,1.3922,1,119.37\H,3,1.0802,2,120.072,1,-0,0\C,2,1.3922,1,119.37,3,180,0\H,5,1.0802,2,120.072,1,-0,0\C,3,1.39311,2,119.031,1,-180,0\H,7,1.08133,3,119.353,2,-180,0\C,5,1.39311,2,119.031,1,-180,0\H,9,1.08133,5,119.353,2,-180,0\C,7,1.39319,3,120.463,2,-0,0\H,11,1.08081,7,120.124,3,-180,0\\HF=-2802.24504\\@

 Total job time:  152753.92s(wall), 323216.20s(cpu)
 Wed Dec 12 11:48:02 2018

        *************************************************************
        *                                                           *
        *  Thank you very much for using Q-Chem.  Have a nice day.  *
        *                                                           *
        *************************************************************

     10 H                     0.338640      -0.031697
     11 C                     0.454056       0.438923
     12 Br                   -0.039169       0.146324
  --------------------------------------------------------
  Sum of atomic charges =     1.000000

                    Cartesian Multipole Moments
 -----------------------------------------------------------------
    Charge (ESU x 10^10)
                 4.8032
    Dipole Moment (Debye)
         X       0.0000      Y      -0.0000      Z      -5.4159
       Tot       5.4159
    Quadrupole Moments (Debye-Ang)
        XX     -39.5500     XY       0.0000     YY     -53.4105
        XZ       0.0000     YZ      -0.0000     ZZ     -23.9131
