 Q-Chem 5.1, Q-Chem, Inc., Pleasanton, CA (2018)
 Q-Chem 5.1.1 for Intel X86 EM64T Linux

User input:
--------------------------------------------------------------
$molecule
0 1
H        -2.1400320233    0.0000000000   -0.1495480158
C        -1.2120583232    0.0000000000   -0.7028148658
C        -1.2042956497    0.0000000000   -2.0947016297
H        -2.1437187877    0.0000000000   -2.6302428250
C         0.0000000000    0.0000000000   -2.7936988293
H         0.0000000000    0.0000000000   -3.8745528350
C         1.2042956497    0.0000000000   -2.0947016297
H         2.1437187877    0.0000000000   -2.6302428250
C         1.2120583232    0.0000000000   -0.7028148658
H         2.1400320233    0.0000000000   -0.1495480158
C         0.0000000000    0.0000000000   -0.0199042774
Br        0.0000000000    0.0000000000    1.7110271744
$end

$rem
   BASIS  = cc-pVTZ
   JOB_TYPE  =  OPT
   METHOD  =  EOM-CCSD
   SCF_CONVERGENCE  =  8
   IP_STATES = [0,1,0,0]
   CC_STATE_TO_OPT = [2,1]
   CC_MEMORY = 80000
! use SP code
  cc_single_prec=1
  eom_single_prec=1
  cc_sp_dm = 1
  cc_sp_t_conv = 4
  cc_sp_e_conv = 6
  cc_erase_dp_integrals = 1
$end

--------------------------------------------------------------

   13   -2802.6422261120      7.26e-09  Convergence criterion met
 Total energy in the final basis set =    -2802.6422261120
 CCSD total energy           = -2803.83879009
        Solving for EOMIP-CCSD A2 transitions.
 EOMIP transition 1/A2
 Total energy = -2803.48716866 a.u.  Excitation energy = 9.5681 eV.
   11   -2802.6482511261      7.13e-09  Convergence criterion met
 Total energy in the final basis set =    -2802.6482511261
 CCSD total energy           = -2803.84566183
        Solving for EOMIP-CCSD A2 transitions.
 EOMIP transition 1/A2
 Total energy = -2803.50289032 a.u.  Excitation energy = 9.3273 eV.
   10   -2802.6488592957      6.24e-09  Convergence criterion met
 Total energy in the final basis set =    -2802.6488592957
 CCSD total energy           = -2803.84607243
        Solving for EOMIP-CCSD A2 transitions.
 EOMIP transition 1/A2
 Total energy = -2803.50327610 a.u.  Excitation energy = 9.3280 eV.

             Standard Nuclear Orientation (Angstroms)
    I     Atom           X                Y                Z
 ----------------------------------------------------------------
    1      H      -2.1384774911     0.0000000000    -0.1696452001
    2      C      -1.1899301707     0.0000000000    -0.6888298752
    3      C      -1.1860257460     0.0000000000    -2.1332324269
    4      H      -2.1391940670     0.0000000000    -2.6441137630
    5      C       0.0000000000     0.0000000000    -2.8493278239
    6      H       0.0000000000     0.0000000000    -3.9278124125
    7      C       1.1860257460     0.0000000000    -2.1332324269
    8      H       2.1391940670     0.0000000000    -2.6441137630
    9      C       1.1899301707     0.0000000000    -0.6888298752
   10      H       2.1384774911     0.0000000000    -0.1696452001
   11      C       0.0000000000     0.0000000000     0.0269576114
   12      Br      0.0000000000     0.0000000000     1.8900817152
 ----------------------------------------------------------------

    9   -2802.6487265472      4.93e-09  Convergence criterion met
 Total energy in the final basis set =    -2802.6487265472
 CCSD total energy           = -2803.84590138
        Solving for EOMIP-CCSD A2 transitions.
 EOMIP transition 1/A2
 Total energy = -2803.50330315 a.u.  Excitation energy = 9.3226 eV.
 Final energy is   -2803.5033031455500
 **  OPTIMIZATION CONVERGED  **

             Orbital Energies (a.u.) and Symmetries
 --------------------------------------------------------------

 Alpha MOs, Unrestricted
 -- Occupied --
-490.03  -65.17  -58.52  -11.30  -11.26  -11.25  -11.25   -9.84
  1 A1    2 A1    3 A1    4 A1    5 A1    6 A1    7 A1    8 A1
 -7.452 -58.520 -11.255 -11.253  -7.445 -58.520  -7.445  -3.196
  9 A1    1 B1    2 B1    3 B1    4 B1    1 B2    2 B2   10 A1
 -3.183  -1.169  -1.079  -0.980  -0.810  -0.707  -0.646  -0.584
 11 A1   12 A1   13 A1   14 A1   15 A1   16 A1   17 A1   18 A1
 -0.494  -3.183  -0.337  -3.192  -1.014  -0.847  -0.638  -0.587
 19 A1    1 A2    2 A2    5 B1    6 B1    7 B1    8 B1    9 B1
 -0.517  -0.419  -3.192  -0.529  -0.442  -0.339
 10 B1   11 B1    3 B2    4 B2    5 B2    6 B2

 Beta MOs, Unrestricted
 -- Occupied --
-490.03  -65.17  -58.52  -11.30  -11.26  -11.25  -11.25   -9.84
  1 A1    2 A1    3 A1    4 A1    5 A1    6 A1    7 A1    8 A1
 -7.452 -58.520 -11.255 -11.253  -7.445 -58.520  -7.445  -3.196
  9 A1    1 B1    2 B1    3 B1    4 B1    1 B2    2 B2   10 A1
 -3.183  -1.169  -1.079  -0.980  -0.810  -0.707  -0.646  -0.584
 11 A1   12 A1   13 A1   14 A1   15 A1   16 A1   17 A1   18 A1
 -0.494  -3.183  -0.337  -3.192  -1.014  -0.847  -0.638  -0.587
 19 A1    1 A2    2 A2    5 B1    6 B1    7 B1    8 B1    9 B1
 -0.517  -0.419  -3.192  -0.529  -0.442  -0.339
 10 B1   11 B1    3 B2    4 B2    5 B2    6 B2

          Ground-State Mulliken Net Atomic Charges

     Atom                 Charge (a.u.)    Spin (a.u.)
  --------------------------------------------------------
      1 H                     0.233961       0.013296
      2 C                    -0.033668      -0.331743
      3 C                    -0.010792      -0.314521
      4 H                     0.228015       0.013958
      5 C                    -0.133526       0.115403
      6 H                     0.222946      -0.003849
      7 C                    -0.010792      -0.314521
      8 H                     0.228015       0.013958
      9 C                    -0.033668      -0.331743
     10 H                     0.233961       0.013296
     11 C                    -0.022828       0.122225
     12 Br                    0.098373       0.004241
  --------------------------------------------------------
  Sum of atomic charges =     1.000000

                    Cartesian Multipole Moments
 -----------------------------------------------------------------
    Charge (ESU x 10^10)
                 4.8032
    Dipole Moment (Debye)
         X      -0.0000      Y       0.0000      Z      -6.8608
       Tot       6.8608
    Quadrupole Moments (Debye-Ang)
        XX     -36.0233     XY       0.0000     YY     -52.7623
        XZ       0.0000     YZ       0.0000     ZZ     -26.1425

 Total job time:  89526.70s(wall), 577359.86s(cpu)
        *  Thank you very much for using Q-Chem.  Have a nice day.  *
