 Q-Chem 5.1, Q-Chem, Inc., Pleasanton, CA (2018)
 Q-Chem 5.1.1 for Intel X86 EM64T Linux

User input:
--------------------------------------------------------------
$comment
Optimized Br-Bz, XAS calculation at the neutral geom (oprimized ri-MP2/cc-pVTZ)
$end

$molecule
0 1
H        -2.1434404908    0.0000000000    0.0671963029
C        -1.2132672529    0.0000000000   -0.4819994175
C        -1.2050294832    0.0000000000   -1.8750832747
H        -2.1443854307    0.0000000000   -2.4107048522
C         0.0000000000    0.0000000000   -2.5742906665
H         0.0000000000    0.0000000000   -3.6551007732
C         1.2050294832    0.0000000000   -1.8750832747
H         2.1443854307    0.0000000000   -2.4107048522
C         1.2132672529    0.0000000000   -0.4819994175
H         2.1434404908    0.0000000000    0.0671963029
C         0.0000000000    0.0000000000    0.2007961851
Br        0.0000000000    0.0000000000    2.0847967058
$end

$rem
   JOB_TYPE  =  SP
   BASIS  =  6-311(2+,+)G**
   METHOD  =  EOM-CCSD
   CVS_EE_STATES = [6,0,6,6]
   EOM_DAVIDSON_MAXVECTORS = 120
   CC_MEMORY = 80000
   cc_trans_prop = 1
   PRINT_GENERAL_BASIS = true
$end
--------------------------------------------------------------

             Standard Nuclear Orientation (Angstroms)
    I     Atom           X                Y                Z
 ----------------------------------------------------------------
    1      H      -2.1434404908     0.0000000000    -0.2235906397
    2      C      -1.2132672529    -0.0000000000    -0.7727863601
    3      C      -1.2050294832    -0.0000000000    -2.1658702173
    4      H      -2.1443854307    -0.0000000000    -2.7014917948
    5      C       0.0000000000    -0.0000000000    -2.8650776091
    6      H       0.0000000000    -0.0000000000    -3.9458877158
    7      C       1.2050294832    -0.0000000000    -2.1658702173
    8      H       2.1443854307    -0.0000000000    -2.7014917948
    9      C       1.2132672529    -0.0000000000    -0.7727863601
   10      H       2.1434404908    -0.0000000000    -0.2235906397
   11      C       0.0000000000    -0.0000000000    -0.0899907575
   12      Br     -0.0000000000     0.0000000000     1.7940097632
 ----------------------------------------------------------------

   14   -2802.5397889930      5.25e-09  Convergence criterion met
 Total energy in the final basis set =    -2802.5397889930
 CCSD total energy           = -2803.66629815
 EOMEE transition 1/A1
 Total energy = -2796.76115958 a.u.  Excitation energy = 187.8984 eV.
 EOMEE transition 2/A1
 Total energy = -2796.69119997 a.u.  Excitation energy = 189.8021 eV.
 EOMEE transition 3/A1
 Total energy = -2796.68819092 a.u.  Excitation energy = 189.8840 eV.
 EOMEE transition 4/A1
 Total energy = -2796.66479012 a.u.  Excitation energy = 190.5207 eV.
 EOMEE transition 5/A1
 Total energy = -2796.65957009 a.u.  Excitation energy = 190.6628 eV.
 EOMEE transition 6/A1
 Total energy = -2796.64551559 a.u.  Excitation energy = 191.0452 eV.
 EOMEE transition 1/B1
 Total energy = -2796.77213821 a.u.  Excitation energy = 187.5996 eV.
 EOMEE transition 2/B1
 Total energy = -2796.69842183 a.u.  Excitation energy = 189.6056 eV.
 EOMEE transition 3/B1
 Total energy = -2796.65616046 a.u.  Excitation energy = 190.7555 eV.
 EOMEE transition 4/B1
 Total energy = -2796.65486834 a.u.  Excitation energy = 190.7907 eV.
 EOMEE transition 5/B1
 Total energy = -2796.64391566 a.u.  Excitation energy = 191.0887 eV.
 EOMEE transition 6/B1
 Total energy = -2796.63745848 a.u.  Excitation energy = 191.2645 eV.
 EOMEE transition 1/B2
 Total energy = -2796.77220960 a.u.  Excitation energy = 187.5977 eV.
 EOMEE transition 2/B2
 Total energy = -2796.69869536 a.u.  Excitation energy = 189.5981 eV.
 EOMEE transition 3/B2
 Total energy = -2796.68408105 a.u.  Excitation energy = 189.9958 eV.
 EOMEE transition 4/B2
 Total energy = -2796.65514933 a.u.  Excitation energy = 190.7831 eV.
 EOMEE transition 5/B2
 Total energy = -2796.65134401 a.u.  Excitation energy = 190.8866 eV.
 EOMEE transition 6/B2
 Total energy = -2796.64444889 a.u.  Excitation energy = 191.0742 eV.

             Orbital Energies (a.u.) and Symmetries
 --------------------------------------------------------------

 Alpha MOs, Restricted
 -- Occupied --
-490.03  -65.16  -58.52  -58.52  -58.52  -11.30  -11.26  -11.26
  1 A1    2 A1    3 A1    1 B2    1 B1    4 A1    2 B1    5 A1
-11.253 -11.253 -11.250  -9.840  -7.454  -7.445  -7.445  -3.193
  6 A1    3 B1    7 A1    8 A1    9 A1    4 B1    2 B2   10 A1
 -3.189  -3.189  -3.179  -3.179  -1.180  -1.077  -1.036  -0.977
  3 B2    5 B1   11 A1    1 A2   12 A1   13 A1    6 B1   14 A1
 -0.849  -0.820  -0.714  -0.648  -0.647  -0.608  -0.578  -0.535
  7 B1   15 A1   16 A1    8 B1   17 A1    9 B1   18 A1    4 B2
 -0.518  -0.496  -0.440  -0.417  -0.354  -0.335
 10 B1   19 A1    5 B2   11 B1    2 A2    6 B2

 Beta MOs, Restricted
 -- Occupied --
-490.03  -65.16  -58.52  -58.52  -58.52  -11.30  -11.26  -11.26
  1 A1    2 A1    3 A1    1 B2    1 B1    4 A1    2 B1    5 A1
-11.253 -11.253 -11.250  -9.840  -7.454  -7.445  -7.445  -3.193
  6 A1    3 B1    7 A1    8 A1    9 A1    4 B1    2 B2   10 A1
 -3.189  -3.189  -3.179  -3.179  -1.180  -1.077  -1.036  -0.977
  3 B2    5 B1   11 A1    1 A2   12 A1   13 A1    6 B1   14 A1
 -0.849  -0.820  -0.714  -0.648  -0.647  -0.608  -0.578  -0.535
  7 B1   15 A1   16 A1    8 B1   17 A1    9 B1   18 A1    4 B2
 -0.518  -0.496  -0.440  -0.417  -0.354  -0.335
 10 B1   19 A1    5 B2   11 B1    2 A2    6 B2

          Ground-State Mulliken Net Atomic Charges

     Atom                 Charge (a.u.)
  ----------------------------------------
      1 H                     0.271627
      2 C                    -0.223084
      3 C                    -0.160080
      4 H                     0.237445
      5 C                    -0.473128
      6 H                     0.191304
      7 C                    -0.160080
      8 H                     0.237445
      9 C                    -0.223084
     10 H                     0.271627
     11 C                     0.379414
     12 Br                   -0.349404
  ----------------------------------------
  Sum of atomic charges =    -0.000000

                    Cartesian Multipole Moments
 -----------------------------------------------------------------
    Charge (ESU x 10^10)
                -0.0000
    Dipole Moment (Debye)
         X      -0.0000      Y      -0.0000      Z      -2.0242
       Tot       2.0242
    Quadrupole Moments (Debye-Ang)
        XX     -48.3719     XY       0.0000     YY     -58.7751
        XZ      -0.0000     YZ       0.0000     ZZ     -49.5405

 Total job time:  7206.39s(wall), 48827.06s(cpu)
        *  Thank you very much for using Q-Chem.  Have a nice day.  *
