 Q-Chem 5.1, Q-Chem, Inc., Pleasanton, CA (2018)
 Q-Chem 5.1.1 for Intel X86 EM64T Linux

User input:
--------------------------------------------------------------
$comment
Optimized Br-Bz, XAS calculation at the neutral geom
6-311(2+,+), core uncontracted on C and Br (lowest s and lowest p)
$end

$molecule
0 1
H        -2.1434404908    0.0000000000    0.0671963029
C        -1.2132672529    0.0000000000   -0.4819994175
C        -1.2050294832    0.0000000000   -1.8750832747
H        -2.1443854307    0.0000000000   -2.4107048522
C         0.0000000000    0.0000000000   -2.5742906665
H         0.0000000000    0.0000000000   -3.6551007732
C         1.2050294832    0.0000000000   -1.8750832747
H         2.1443854307    0.0000000000   -2.4107048522
C         1.2132672529    0.0000000000   -0.4819994175
H         2.1434404908    0.0000000000    0.0671963029
C         0.0000000000    0.0000000000    0.2007961851
Br        0.0000000000    0.0000000000    2.0847967058
$end

$rem
   JOB_TYPE  =  SP
   BASIS  =  general
   METHOD  =  EOM-CCSD
   n_frozen_core = 11
   CVS_EE_STATES = [6,0,6,6]
   EOM_DAVIDSON_MAXVECTORS = 120
   CC_MEMORY = 80000
   cc_trans_prop = 1
   eom_shift = 06872    187 eV
$end

$basis
H    0
S    3    1.000000
   3.38650000E+01    2.54938000E-02
   5.09479000E+00    1.90373000E-01
   1.15879000E+00    8.52161000E-01
S    1    1.000000
   3.25840000E-01    1.00000000E+00
S    1    1.000000
   1.02741000E-01    1.00000000E+00
S    1    1.000000
   3.60000000E-02    1.00000000E+00
P    1    1.000000
   7.50000000E-01    1.00000000E+00
****
C    0
S    1    1.000000
   4.56324000E+03    1.96665000E-03
S    1    1.000000
   6.82024000E+02    1.52306000E-02
S    1    1.000000
   1.54973000E+02    7.61269000E-02
S    1    1.000000
   4.44553000E+01    2.60801000E-01
S    1    1.000000
   1.30290000E+01    6.16462000E-01
S    1    1.000000
   1.82773000E+00    2.21006000E-01
SP   3    1.000000
   2.09642000E+01    1.14660000E-01   4.02487000E-02
   4.80331000E+00    9.19999000E-01   2.37594000E-01
   1.45933000E+00   -3.03068000E-03   8.15854000E-01
SP   1    1.000000
   4.83456000E-01    1.00000000E+00   1.00000000E+00
SP   1    1.000000
   1.45585000E-01    1.00000000E+00   1.00000000E+00
SP   1    1.000000
   4.38000000E-02    1.00000000E+00   1.00000000E+00
SP   1    1.000000
   1.31927711E-02    1.00000000E+00   1.00000000E+00
D    1    1.000000
   6.26000000E-01    1.00000000E+00
****
Br   0
S    1    1.000000
   4.39700000E+05    8.13000000E-04
S    1    1.000000
   6.60300000E+04    6.28500000E-03
S    1    1.000000
   1.51400000E+04    3.19200000E-02
S    1    1.000000
   4.31700000E+03    1.28800000E-01
S    1    1.000000
   1.41400000E+03    3.94600000E-01
S    1    1.000000
   5.23900000E+02    5.41300000E-01
S    3    1.000000
   5.23900000E+02    1.83100000E-01
   2.07700000E+02    6.17600000E-01
   8.65400000E+01    2.53800000E-01
S    1    1.000000
   3.05200000E+01    1.00000000E+00
S    1    1.000000
   1.29800000E+01    1.00000000E+00
S    1    1.000000
   4.41200000E+00    1.00000000E+00
S    1    1.000000
   1.86200000E+00    1.00000000E+00
S    1    1.000000
   3.93200000E-01    1.00000000E+00
S    1    1.000000
   1.40000000E-01    1.00000000E+00
P    1    1.000000
   2.95700000E+03    2.22600000E-02
P    1    1.000000
   7.00300000E+02    1.80200000E-01
P    1    1.000000
   2.24600000E+02    8.62400000E-01
P    3    1.000000
   8.25900000E+01    3.44000000E-01
   3.31900000E+01    5.07100000E-01
   1.42000000E+01    2.59000000E-01
P    3    1.000000
   1.42000000E+01    7.96500000E-02
   7.43800000E+00    3.73400000E-01
   3.52600000E+00    6.04900000E-01
P    1    1.000000
   1.59500000E+00    1.00000000E+00
P    1    1.000000
   8.46200000E-01    1.00000000E+00
P    1    1.000000
   3.18600000E-01    1.00000000E+00
P    1    1.000000
   1.09600000E-01    1.00000000E+00
D    4    1.000000
   1.34800000E+02    1.83100000E-02
   3.63900000E+01    1.35000000E-01
   1.21600000E+01    4.26100000E-01
   4.34100000E+00    6.04300000E-01
D    1    1.000000
   1.53500000E+00    1.00000000E+00
SP   1    1.000000
   3.90000000E-02    1.00000000E+00   1.00000000E+00
SP   1    1.000000
   1.17469880E-02    1.00000000E+00   1.00000000E+00
D    1    1.000000
   4.15000000E-01    1.00000000E+00
****
$end
--------------------------------------------------------------

             Standard Nuclear Orientation (Angstroms)
    I     Atom           X                Y                Z
 ----------------------------------------------------------------
    1      H      -2.1434404908     0.0000000000    -0.2235906397
    2      C      -1.2132672529    -0.0000000000    -0.7727863601
    3      C      -1.2050294832    -0.0000000000    -2.1658702173
    4      H      -2.1443854307    -0.0000000000    -2.7014917948
    5      C       0.0000000000    -0.0000000000    -2.8650776091
    6      H       0.0000000000    -0.0000000000    -3.9458877158
    7      C       1.2050294832    -0.0000000000    -2.1658702173
    8      H       2.1443854307    -0.0000000000    -2.7014917948
    9      C       1.2132672529    -0.0000000000    -0.7727863601
   10      H       2.1434404908    -0.0000000000    -0.2235906397
   11      C       0.0000000000    -0.0000000000    -0.0899907575
   12      Br     -0.0000000000     0.0000000000     1.7940097632
 ----------------------------------------------------------------

   21   -2802.5466958889      2.96e-09  Convergence criterion met
 Total energy in the final basis set =    -2802.5466958889
 CCSD total energy           = -2803.81190210
 EOMEE transition 1/A1
 Total energy = -2799.60938851 a.u.  Excitation energy = 114.3562 eV.
 EOMEE transition 2/A1
 Total energy = -2794.24465732 a.u.  Excitation energy = 260.3380 eV.
 EOMEE transition 3/A1
 Total energy = -2799.73539138 a.u.  Excitation energy = 110.9275 eV.
 EOMEE transition 4/A1
 Total energy = -2799.79526159 a.u.  Excitation energy = 109.2983 eV.
 EOMEE transition 5/A1
 Total energy = -2799.85930554 a.u.  Excitation energy = 107.5556 eV.
 EOMEE transition 6/A1
 Total energy = -2799.94754626 a.u.  Excitation energy = 105.1545 eV.
 EOMEE transition 1/B1
 Total energy = -2793.22787801 a.u.  Excitation energy = 288.0059 eV.
 EOMEE transition 2/B1
 Total energy = -2793.22440152 a.u.  Excitation energy = 288.1005 eV.
 EOMEE transition 3/B1
 Total energy = -2793.19208168 a.u.  Excitation energy = 288.9800 eV.
 EOMEE transition 4/B1
 Total energy = -2793.19199278 a.u.  Excitation energy = 288.9824 eV.
 EOMEE transition 5/B1
 Total energy = -2793.18866426 a.u.  Excitation energy = 289.0730 eV.
 EOMEE transition 6/B1
 Total energy = -2791.88360426 a.u.  Excitation energy = 324.5855 eV.
 EOMEE transition 1/B2
 Total energy = -2793.30285468 a.u.  Excitation energy = 285.9657 eV.
 EOMEE transition 2/B2
 Total energy = -2793.30259174 a.u.  Excitation energy = 285.9729 eV.
 EOMEE transition 3/B2
 Total energy = -2793.30030933 a.u.  Excitation energy = 286.0350 eV.
 EOMEE transition 4/B2
 Total energy = -2793.26173625 a.u.  Excitation energy = 287.0846 eV.
 EOMEE transition 5/B2
 Total energy = -2793.24420048 a.u.  Excitation energy = 287.5618 eV.
 EOMEE transition 6/B2
 Total energy = -2793.24285924 a.u.  Excitation energy = 287.5983 eV.

             Orbital Energies (a.u.) and Symmetries
 --------------------------------------------------------------

 Alpha MOs, Restricted
 -- Occupied --
-490.03  -65.16  -58.52  -58.52  -58.52  -11.30  -11.26  -11.26
  1 A1    2 A1    3 A1    1 B2    1 B1    4 A1    2 B1    5 A1
-11.254 -11.254 -11.251  -9.841  -7.454  -7.445  -7.445  -3.193
  6 A1    3 B1    7 A1    8 A1    9 A1    4 B1    2 B2   10 A1
 -3.189  -3.189  -3.179  -3.179  -1.180  -1.076  -1.036  -0.977
  3 B2    5 B1   11 A1    1 A2   12 A1   13 A1    6 B1   14 A1
 -0.849  -0.820  -0.714  -0.648  -0.647  -0.608  -0.578  -0.535
  7 B1   15 A1   16 A1    8 B1   17 A1    9 B1   18 A1    4 B2
 -0.518  -0.496  -0.440  -0.417  -0.354  -0.335
 10 B1   19 A1    5 B2   11 B1    2 A2    6 B2

 Beta MOs, Restricted
 -- Occupied --
-490.03  -65.16  -58.52  -58.52  -58.52  -11.30  -11.26  -11.26
  1 A1    2 A1    3 A1    1 B2    1 B1    4 A1    2 B1    5 A1
-11.254 -11.254 -11.251  -9.841  -7.454  -7.445  -7.445  -3.193
  6 A1    3 B1    7 A1    8 A1    9 A1    4 B1    2 B2   10 A1
 -3.189  -3.189  -3.179  -3.179  -1.180  -1.076  -1.036  -0.977
  3 B2    5 B1   11 A1    1 A2   12 A1   13 A1    6 B1   14 A1
 -0.849  -0.820  -0.714  -0.648  -0.647  -0.608  -0.578  -0.535
  7 B1   15 A1   16 A1    8 B1   17 A1    9 B1   18 A1    4 B2
 -0.518  -0.496  -0.440  -0.417  -0.354  -0.335
 10 B1   19 A1    5 B2   11 B1    2 A2    6 B2

          Ground-State Mulliken Net Atomic Charges

     Atom                 Charge (a.u.)
  ----------------------------------------
      1 H                     0.259406
      2 C                    -0.225788
      3 C                    -0.163518
      4 H                     0.227400
      5 C                    -0.415131
      6 H                     0.187833
      7 C                    -0.163518
      8 H                     0.227400
      9 C                    -0.225788
     10 H                     0.259406
     11 C                     0.384420
     12 Br                   -0.352120
  ----------------------------------------
  Sum of atomic charges =     0.000000

                    Cartesian Multipole Moments
 -----------------------------------------------------------------
    Charge (ESU x 10^10)
                 0.0000
    Dipole Moment (Debye)
         X      -0.0000      Y       0.0000      Z      -2.0241
       Tot       2.0241
    Quadrupole Moments (Debye-Ang)
        XX     -48.3713     XY       0.0000     YY     -58.7595
        XZ      -0.0000     YZ       0.0000     ZZ     -49.5421

 Total job time:  38929.77s(wall), 268706.61s(cpu)
        *  Thank you very much for using Q-Chem.  Have a nice day.  *
