 Q-Chem 5.1, Q-Chem, Inc., Pleasanton, CA (2018)
 Q-Chem 5.1.1 for Intel X86 EM64T Linux

User input:
--------------------------------------------------------------
$molecule
0 1
H        -2.1400320233    0.0000000000   -0.1495480158
C        -1.2120583232    0.0000000000   -0.7028148658
C        -1.2042956497    0.0000000000   -2.0947016297
H        -2.1437187877    0.0000000000   -2.6302428250
C         0.0000000000    0.0000000000   -2.7936988293
H         0.0000000000    0.0000000000   -3.8745528350
C         1.2042956497    0.0000000000   -2.0947016297
H         2.1437187877    0.0000000000   -2.6302428250
C         1.2120583232    0.0000000000   -0.7028148658
H         2.1400320233    0.0000000000   -0.1495480158
C         0.0000000000    0.0000000000   -0.0199042774
Br        0.0000000000    0.0000000000    1.7110271744
$end

$rem
   BASIS  = cc-pVTZ
   JOB_TYPE  =  OPT
   METHOD  =  EOM-CCSD
   SCF_CONVERGENCE  =  8
   IP_STATES = [0,0,0,1]
   CC_STATE_TO_OPT = [4,1]
   CC_MEMORY = 80000
! use SP code
  cc_single_prec=1
  eom_single_prec=1
  cc_sp_dm = 1
  cc_sp_t_conv = 4
  cc_sp_e_conv = 6
  cc_erase_dp_integrals = 1
$end

--------------------------------------------------------------

   13   -2802.6422261124      7.26e-09  Convergence criterion met
 Total energy in the final basis set =    -2802.6422261124
 CCSD total energy           = -2803.83878985
        Solving for EOMIP-CCSD B2 transitions.
 EOMIP transition 1/B2
 Total energy = -2803.51704189 a.u.  Excitation energy = 8.7552 eV.
   11   -2802.6493246012      4.54e-09  Convergence criterion met
 Total energy in the final basis set =    -2802.6493246012
 CCSD total energy           = -2803.84627284
        Solving for EOMIP-CCSD B2 transitions.
 EOMIP transition 1/B2
 Total energy = -2803.52510942 a.u.  Excitation energy = 8.7393 eV.
    9   -2802.6491564807      6.55e-09  Convergence criterion met
 Total energy in the final basis set =    -2802.6491564807
 CCSD total energy           = -2803.84611144
        Solving for EOMIP-CCSD B2 transitions.
 EOMIP transition 1/B2
 Total energy = -2803.52524213 a.u.  Excitation energy = 8.7313 eV.

             Standard Nuclear Orientation (Angstroms)
    I     Atom           X                Y                Z
 ----------------------------------------------------------------
    1      H      -2.1662499668     0.0000000000    -0.1600072082
    2      C      -1.2443769763     0.0000000000    -0.7219689559
    3      C      -1.2333299872     0.0000000000    -2.0931459334
    4      H      -2.1593433045     0.0000000000    -2.6479580489
    5      C       0.0000000000     0.0000000000    -2.7829651288
    6      H       0.0000000000     0.0000000000    -3.8640997101
    7      C       1.2333299872     0.0000000000    -2.0931459334
    8      H       2.1593433045     0.0000000000    -2.6479580489
    9      C       1.2443769763     0.0000000000    -0.7219689559
   10      H       2.1662499668     0.0000000000    -0.1600072082
   11      C       0.0000000000     0.0000000000    -0.0294844137
   12      Br      0.0000000000     0.0000000000     1.7909661055
 ----------------------------------------------------------------

    8   -2802.6490728298      8.75e-09  Convergence criterion met
 Total energy in the final basis set =    -2802.6490728298
 CCSD total energy           = -2803.84603364
        Solving for EOMIP-CCSD B2 transitions.
 EOMIP transition 1/B2
 Total energy = -2803.52525351 a.u.  Excitation energy = 8.7289 eV.
 Final energy is   -2803.5252535065461
 **  OPTIMIZATION CONVERGED  **

             Orbital Energies (a.u.) and Symmetries
 --------------------------------------------------------------

 Alpha MOs, Unrestricted
 -- Occupied --
-490.02  -65.16  -58.52  -11.30  -11.25  -11.25  -11.25   -9.84
  1 A1    2 A1    3 A1    4 A1    5 A1    6 A1    7 A1    8 A1
 -7.449 -58.516 -11.251 -11.248  -7.442 -58.517  -7.442  -3.193
  9 A1    1 B1    2 B1    3 B1    4 B1    1 B2    2 B2   10 A1
 -3.180  -1.171  -1.078  -0.965  -0.817  -0.707  -0.646  -0.569
 11 A1   12 A1   13 A1   14 A1   15 A1   16 A1   17 A1   18 A1
 -0.502  -3.180  -0.358  -3.189  -1.037  -0.838  -0.641  -0.611
 19 A1    1 A2    2 A2    5 B1    6 B1    7 B1    8 B1    9 B1
 -0.511  -0.415  -3.189  -0.531  -0.441  -0.319
 10 B1   11 B1    3 B2    4 B2    5 B2    6 B2

 Beta MOs, Unrestricted
 -- Occupied --
-490.02  -65.16  -58.52  -11.30  -11.25  -11.25  -11.25   -9.84
  1 A1    2 A1    3 A1    4 A1    5 A1    6 A1    7 A1    8 A1
 -7.449 -58.516 -11.251 -11.248  -7.442 -58.517  -7.442  -3.193
  9 A1    1 B1    2 B1    3 B1    4 B1    1 B2    2 B2   10 A1
 -3.180  -1.171  -1.078  -0.965  -0.817  -0.707  -0.646  -0.569
 11 A1   12 A1   13 A1   14 A1   15 A1   16 A1   17 A1   18 A1
 -0.502  -3.180  -0.358  -3.189  -1.037  -0.838  -0.641  -0.611
 19 A1    1 A2    2 A2    5 B1    6 B1    7 B1    8 B1    9 B1
 -0.511  -0.415  -3.189  -0.531  -0.441  -0.319
 10 B1   11 B1    3 B2    4 B2    5 B2    6 B2

          Ground-State Mulliken Net Atomic Charges

     Atom                 Charge (a.u.)    Spin (a.u.)
  --------------------------------------------------------
      1 H                     0.220240      -0.000189
      2 C                    -0.096214      -0.021203
      3 C                    -0.091649      -0.025450
      4 H                     0.216207       0.003086
      5 C                    -0.033763      -0.317623
      6 H                     0.220815       0.012684
      7 C                    -0.091649      -0.025450
      8 H                     0.216207       0.003086
      9 C                    -0.096214      -0.021203
     10 H                     0.220240      -0.000189
     11 C                     0.026643      -0.334812
     12 Br                    0.289137      -0.272736
  --------------------------------------------------------
  Sum of atomic charges =     1.000000

                    Cartesian Multipole Moments
 -----------------------------------------------------------------
    Charge (ESU x 10^10)
                 4.8032
    Dipole Moment (Debye)
         X       0.0000      Y       0.0000      Z      -4.2628
       Tot       4.2628
    Quadrupole Moments (Debye-Ang)
        XX     -39.1582     XY       0.0000     YY     -52.4362
        XZ       0.0000     YZ      -0.0000     ZZ     -23.8136

 Total job time:  94177.14s(wall), 619558.77s(cpu)
        *  Thank you very much for using Q-Chem.  Have a nice day.  *
