 Q-Chem 5.1, Q-Chem, Inc., Pleasanton, CA (2018)
 Q-Chem 5.1.1 for Intel X86 EM64T Linux

User input:
--------------------------------------------------------------
$molecule
0 1
  H    0.0000000    2.1527918    0.4822092
  C    0.0000000    1.2047582   -0.0651382
  C    0.0000000    1.2047582   -1.4562732
  H    0.0000000    2.1527918   -2.0036206
  C    0.0000000   -0.0000000   -2.1518406
  H    0.0000000   -0.0000000   -3.2465355
  C    0.0000000   -1.2047582   -1.4562732
  H   -0.0000000   -2.1527918   -2.0036206
  C   -0.0000000   -1.2047582   -0.0651382
  H   -0.0000000   -2.1527918    0.4822092
  C   -0.0000000    0.0000000    0.6304292
 Br   -0.0000000    0.0000000    1.7251241
$end

$rem
   AUXILIARY_BASIS  =  RIMP2-cc-PVTZ
   BASIS  =  cc-pVTZ
   GUI  =  2
   JOB_TYPE  =  Optimization
   METHOD  =  RI-MP2
   SCF_CONVERGENCE  =  8
   n_frozen_core = FC
$end

--------------------------------------------------------------

   14   -2801.4737680752      4.72e-09  Convergence criterion met
 Total energy in the final basis set =    -2801.4737680752
        RIMP2         total energy =     -2802.6895494435 a.u.
   13   -2801.9744544397      5.46e-09  Convergence criterion met
 Total energy in the final basis set =    -2801.9744544397
        RIMP2         total energy =     -2803.1787752779 a.u.
   13   -2802.2669980715      3.33e-09  Convergence criterion met
 Total energy in the final basis set =    -2802.2669980715
        RIMP2         total energy =     -2803.4611464707 a.u.
   12   -2802.4346503582      8.90e-09  Convergence criterion met
 Total energy in the final basis set =    -2802.4346503582
        RIMP2         total energy =     -2803.6208095447 a.u.
   12   -2802.5227148362      3.91e-09  Convergence criterion met
 Total energy in the final basis set =    -2802.5227148362
        RIMP2         total energy =     -2803.7053331232 a.u.
 Total energy in the final basis set =    -2802.6560010844
        RIMP2         total energy =     -2803.8281468857 a.u.
   10   -2802.6563231681      7.72e-09  Convergence criterion met
 Total energy in the final basis set =    -2802.6563231681
        RIMP2         total energy =     -2803.8282974366 a.u.
    8   -2802.6564128192      9.86e-09  Convergence criterion met
 Total energy in the final basis set =    -2802.6564128192
        RIMP2         total energy =     -2803.8283155997 a.u.
    8   -2802.6564417050      8.92e-09  Convergence criterion met
 Total energy in the final basis set =    -2802.6564417050
        RIMP2         total energy =     -2803.8283187299 a.u.

             Standard Nuclear Orientation (Angstroms)
    I     Atom           X                Y                Z
 ----------------------------------------------------------------
    1      H      -2.1434404908     0.0000000000     0.0671963029
    2      C      -1.2132672529     0.0000000000    -0.4819994175
    3      C      -1.2050294832     0.0000000000    -1.8750832747
    4      H      -2.1443854307     0.0000000000    -2.4107048522
    5      C       0.0000000000     0.0000000000    -2.5742906665
    6      H       0.0000000000     0.0000000000    -3.6551007732
    7      C       1.2050294832     0.0000000000    -1.8750832747
    8      H       2.1443854307     0.0000000000    -2.4107048522
    9      C       1.2132672529     0.0000000000    -0.4819994175
   10      H       2.1434404908     0.0000000000     0.0671963029
   11      C       0.0000000000     0.0000000000     0.2007961851
   12      Br      0.0000000000     0.0000000000     2.0847967058
 ----------------------------------------------------------------

    7   -2802.6564435594      7.40e-09  Convergence criterion met
 Total energy in the final basis set =    -2802.6564435594
        RIMP2         total energy =     -2803.8283189831 a.u.
 Final energy is   -2803.8283189831113
 **  OPTIMIZATION CONVERGED  **

             Orbital Energies (a.u.) and Symmetries
 --------------------------------------------------------------

 Alpha MOs, Restricted
 -- Occupied --
-490.02  -65.16  -58.52  -58.52  -58.52  -11.30  -11.25  -11.25
  1 A1    2 A1    3 A1    1 B2    1 B1    4 A1    2 B1    5 A1
-11.249 -11.249 -11.246  -9.836  -7.447  -7.441  -7.441  -3.191
  6 A1    3 B1    7 A1    8 A1    9 A1    2 B2    4 B1   10 A1
 -3.188  -3.187  -3.179  -3.179  -1.175  -1.073  -1.032  -0.974
  3 B2    5 B1    1 A2   11 A1   12 A1   13 A1    6 B1   14 A1
 -0.845  -0.817  -0.710  -0.644  -0.644  -0.604  -0.575  -0.533
  7 B1   15 A1   16 A1    8 B1   17 A1    9 B1   18 A1    4 B2
 -0.515  -0.493  -0.439  -0.416  -0.352  -0.333
 10 B1   19 A1    5 B2   11 B1    2 A2    6 B2

 Beta MOs, Restricted
 -- Occupied --
-490.02  -65.16  -58.52  -58.52  -58.52  -11.30  -11.25  -11.25
  1 A1    2 A1    3 A1    1 B2    1 B1    4 A1    2 B1    5 A1
-11.249 -11.249 -11.246  -9.836  -7.447  -7.441  -7.441  -3.191
  6 A1    3 B1    7 A1    8 A1    9 A1    2 B2    4 B1   10 A1
 -3.188  -3.187  -3.179  -3.179  -1.175  -1.073  -1.032  -0.974
  3 B2    5 B1    1 A2   11 A1   12 A1   13 A1    6 B1   14 A1
 -0.845  -0.817  -0.710  -0.644  -0.644  -0.604  -0.575  -0.533
  7 B1   15 A1   16 A1    8 B1   17 A1    9 B1   18 A1    4 B2
 -0.515  -0.493  -0.439  -0.416  -0.352  -0.333
 10 B1   19 A1    5 B2   11 B1    2 A2    6 B2

          Ground-State Mulliken Net Atomic Charges

     Atom                 Charge (a.u.)
  ----------------------------------------
      1 H                     0.169477
      2 C                    -0.185744
      3 C                    -0.123653
      4 H                     0.158210
      5 C                    -0.168031
      6 H                     0.157899
      7 C                    -0.123653
      8 H                     0.158210
      9 C                    -0.185744
     10 H                     0.169477
     11 C                     0.059310
     12 Br                   -0.085758
  ----------------------------------------
  Sum of atomic charges =    -0.000000

                    Cartesian Multipole Moments
 -----------------------------------------------------------------
    Charge (ESU x 10^10)
                 0.0000
    Dipole Moment (Debye)
         X      -0.0000      Y      -0.0000      Z      -1.7187
       Tot       1.7187
    Quadrupole Moments (Debye-Ang)
        XX     -48.6722     XY      -0.0000     YY     -57.4687
        XZ      -0.0000     YZ      -0.0000     ZZ     -50.3676

 Total job time:  18418.08s(wall), 73299.78s(cpu)
        *  Thank you very much for using Q-Chem.  Have a nice day.  *
