 Q-Chem 5.1, Q-Chem, Inc., Pleasanton, CA (2018)
 Q-Chem 5.1.0 for Intel X86 EM64T Linux

User input:
--------------------------------------------------------------
$comment
Optimized Cl-Bz, XAS
basis = 6-311(2+,+)G** uncontracted on C
$end

$molecule
0 1
H      -2.1434404908     0.0000000000    -0.2235906397
C      -1.2132672529    -0.0000000000    -0.7727863601
C      -1.2050294832    -0.0000000000    -2.1658702173
H      -2.1443854307    -0.0000000000    -2.7014917948
C       0.0000000000    -0.0000000000    -2.8650776091
H       0.0000000000    -0.0000000000    -3.9458877158
C       1.2050294832    -0.0000000000    -2.1658702173
H       2.1443854307    -0.0000000000    -2.7014917948
C       1.2132672529    -0.0000000000    -0.7727863601
H       2.1434404908    -0.0000000000    -0.2235906397
C      -0.0000000000    -0.0000000000    -0.0899907575
Br     -0.0000000000     0.0000000000     1.7940097632
$end

$rem
   JOB_TYPE  =  SP
   BASIS  =  general
   METHOD  =  EOM-CCSD
   CVS_EE_STATES = [10,0,10,10]
   eom_preconv_singles = true
   n_frozen_core = 7
   cc_trans_prop = true
   use_libqints = 1   !use new int library (will be def in trunk)
   cc_memory = 100000
   EOM_DAVIDSON_MAX_ITER 200
   EOM_DAVIDSON_MAXVECTORS = 1000
   eom_davidson_convergence = 4
   eom_shift = 10000
$end

$basis
H    0
S    3    1.000000
   3.38650000E+01    2.54938000E-02
   5.09479000E+00    1.90373000E-01
   1.15879000E+00    8.52161000E-01
S    1    1.000000
   3.25840000E-01    1.00000000E+00
S    1    1.000000
   1.02741000E-01    1.00000000E+00
S    1    1.000000
   3.60000000E-02    1.00000000E+00
P    1    1.000000
   7.50000000E-01    1.00000000E+00
****
C    0
S    1    1.000000
   4.56324000E+03    1.96665000E-03
S    1    1.000000
   6.82024000E+02    1.52306000E-02
S    1    1.000000
   1.54973000E+02    7.61269000E-02
S    1    1.000000
   4.44553000E+01    2.60801000E-01
S    1    1.000000
   1.30290000E+01    6.16462000E-01
S    1    1.000000
   1.82773000E+00    2.21006000E-01
SP   3    1.000000
   2.09642000E+01    1.14660000E-01   4.02487000E-02
   4.80331000E+00    9.19999000E-01   2.37594000E-01
   1.45933000E+00   -3.03068000E-03   8.15854000E-01
SP   1    1.000000
   4.83456000E-01    1.00000000E+00   1.00000000E+00
SP   1    1.000000
   1.45585000E-01    1.00000000E+00   1.00000000E+00
SP   1    1.000000
   4.38000000E-02    1.00000000E+00   1.00000000E+00
SP   1    1.000000
   1.31927711E-02    1.00000000E+00   1.00000000E+00
D    1    1.000000
   6.26000000E-01    1.00000000E+00
****
Br   0
S    6    1.000000
   4.39700000E+05    8.13000000E-04
   6.60300000E+04    6.28500000E-03
   1.51400000E+04    3.19200000E-02
   4.31700000E+03    1.28800000E-01
   1.41400000E+03    3.94600000E-01
   5.23900000E+02    5.41300000E-01
S    3    1.000000
   5.23900000E+02    1.83100000E-01
   2.07700000E+02    6.17600000E-01
   8.65400000E+01    2.53800000E-01
S    1    1.000000
   3.05200000E+01    1.00000000E+00
S    1    1.000000
   1.29800000E+01    1.00000000E+00
S    1    1.000000
   4.41200000E+00    1.00000000E+00
S    1    1.000000
   1.86200000E+00    1.00000000E+00
S    1    1.000000
   3.93200000E-01    1.00000000E+00
S    1    1.000000
   1.40000000E-01    1.00000000E+00
P    3    1.000000
   2.95700000E+03    2.22600000E-02
   7.00300000E+02    1.80200000E-01
   2.24600000E+02    8.62400000E-01
P    3    1.000000
   8.25900000E+01    3.44000000E-01
   3.31900000E+01    5.07100000E-01
   1.42000000E+01    2.59000000E-01
P    3    1.000000
   1.42000000E+01    7.96500000E-02
   7.43800000E+00    3.73400000E-01
   3.52600000E+00    6.04900000E-01
P    1    1.000000
   1.59500000E+00    1.00000000E+00
P    1    1.000000
   8.46200000E-01    1.00000000E+00
P    1    1.000000
   3.18600000E-01    1.00000000E+00
P    1    1.000000
   1.09600000E-01    1.00000000E+00
D    4    1.000000
   1.34800000E+02    1.83100000E-02
   3.63900000E+01    1.35000000E-01
   1.21600000E+01    4.26100000E-01
   4.34100000E+00    6.04300000E-01
D    1    1.000000
   1.53500000E+00    1.00000000E+00
SP   1    1.000000
   3.90000000E-02    1.00000000E+00   1.00000000E+00
SP   1    1.000000
   1.17469880E-02    1.00000000E+00   1.00000000E+00
D    1    1.000000
   4.15000000E-01    1.00000000E+00
****
Gh   0
S   1   1.00
        0.0112533427        1.0000000000
S   1   1.00
        0.0058583805        1.0000000000
S   1   1.00
        0.0033459739        1.0000000000
S   1   1.00
        0.0020484225        1.0000000000
S   1   1.00
        0.0013236424        1.0000000000
P   1   1.00
        0.0192542060        1.0000000000
P   1   1.00
        0.0099882106        1.0000000000
P   1   1.00
        0.0056893607        1.0000000000
P   1   1.00
        0.0034756797        1.0000000000
P   1   1.00
        0.0022420590        1.0000000000
D   1   1.00
        0.0274456919        1.0000000000
D   1   1.00
        0.0142043987        1.0000000000
D   1   1.00
        0.0080765930        1.0000000000
D   1   1.00
        0.0049271863        1.0000000000
D   1   1.00
        0.0031748110        1.0000000000
****
$end

--------------------------------------------------------------

             Standard Nuclear Orientation (Angstroms)
    I     Atom           X                Y                Z
 ----------------------------------------------------------------
    1      H      -2.1434404908     0.0000000000    -0.2235906397
    2      C      -1.2132672529     0.0000000000    -0.7727863601
    3      C      -1.2050294832     0.0000000000    -2.1658702173
    4      H      -2.1443854307     0.0000000000    -2.7014917948
    5      C       0.0000000000     0.0000000000    -2.8650776091
    6      H       0.0000000000     0.0000000000    -3.9458877158
    7      C       1.2050294832    -0.0000000000    -2.1658702173
    8      H       2.1443854307    -0.0000000000    -2.7014917948
    9      C       1.2132672529    -0.0000000000    -0.7727863601
   10      H       2.1434404908    -0.0000000000    -0.2235906397
   11      C      -0.0000000000     0.0000000000    -0.0899907575
   12      Br     -0.0000000000    -0.0000000000     1.7940097632
 ----------------------------------------------------------------

   20   -2802.5402762024      9.43e-09  Convergence criterion met
 CCSD total energy           = -2803.88218278
 EOMEE transition 1/A1
 Total energy = -2793.30530382 a.u.  Excitation energy = 287.8115 eV.
 EOMEE transition 2/A1
 Total energy = -2793.23931946 a.u.  Excitation energy = 289.6070 eV.
 EOMEE transition 3/A1
 Total energy = -2793.21271353 a.u.  Excitation energy = 290.3310 eV.
 EOMEE transition 4/A1
 Total energy = -2793.20338706 a.u.  Excitation energy = 290.5848 eV.
 EOMEE transition 5/A1
 Total energy = -2793.19404999 a.u.  Excitation energy = 290.8389 eV.
 EOMEE transition 6/A1
 Total energy = -2793.18182106 a.u.  Excitation energy = 291.1717 eV.
 EOMEE transition 7/A1
 Total energy = -2793.17447951 a.u.  Excitation energy = 291.3714 eV.
 EOMEE transition 8/A1
 Total energy = -2793.16949521 a.u.  Excitation energy = 291.5071 eV.
 EOMEE transition 9/A1
 Total energy = -2793.15956654 a.u.  Excitation energy = 291.7772 eV.
 EOMEE transition 10/A1
 Total energy = -2793.15516833 a.u.  Excitation energy = 291.8969 eV.
 EOMEE transition 1/B1
 Total energy = -2793.21860335 a.u.  Excitation energy = 290.1708 eV.
 EOMEE transition 2/B1
 Total energy = -2793.19385421 a.u.  Excitation energy = 290.8442 eV.
 EOMEE transition 3/B1
 Total energy = -2793.17526676 a.u.  Excitation energy = 291.3500 eV.
 EOMEE transition 4/B1
 EOMEE transition 5/B1
 EOMEE transition 6/B1
 Total energy = -2793.14987323 a.u.  Excitation energy = 292.0410 eV.
 EOMEE transition 7/B1
 Total energy = -2793.14815429 a.u.  Excitation energy = 292.0878 eV.
 EOMEE transition 8/B1
 Total energy = -2793.12760177 a.u.  Excitation energy = 292.6470 eV.
 EOMEE transition 9/B1
 Total energy = -2793.10249178 a.u.  Excitation energy = 293.3303 eV.
 EOMEE transition 10/B1
 Total energy = -2793.08259419 a.u.  Excitation energy = 293.8718 eV.
 EOMEE transition 1/B2
 Total energy = -2793.33142199 a.u.  Excitation energy = 287.1008 eV.
 EOMEE transition 2/B2
 Total energy = -2793.21328069 a.u.  Excitation energy = 290.3156 eV.
 EOMEE transition 3/B2
 Total energy = -2793.18925631 a.u.  Excitation energy = 290.9693 eV.
 EOMEE transition 4/B2
 Total energy = -2793.17233479 a.u.  Excitation energy = 291.4298 eV.
 EOMEE transition 5/B2
 Total energy = -2793.16634935 a.u.  Excitation energy = 291.5927 eV.
 EOMEE transition 6/B2
 Total energy = -2793.14642208 a.u.  Excitation energy = 292.1349 eV.
 EOMEE transition 7/B2
 Total energy = -2793.12266549 a.u.  Excitation energy = 292.7814 eV.
 EOMEE transition 8/B2
 Total energy = -2793.11013419 a.u.  Excitation energy = 293.1223 eV.
 EOMEE transition 9/B2
 Total energy = -2793.09781254 a.u.  Excitation energy = 293.4576 eV.
 EOMEE transition 10/B2
 Total energy = -2793.08814035 a.u.  Excitation energy = 293.7208 eV.

             Orbital Energies (a.u.) and Symmetries
 --------------------------------------------------------------

 Alpha MOs, Restricted
 -- Occupied --
-490.03  -65.16  -58.52  -58.52  -58.52  -11.30  -11.26  -11.26
  1 A1    2 A1    3 A1    1 B2    1 B1    4 A1    2 B1    5 A1
-11.254 -11.254 -11.251  -9.840  -7.454  -7.445  -7.445  -3.193
  6 A1    3 B1    7 A1    8 A1    9 A1    4 B1    2 B2   10 A1
 -3.189  -3.189  -3.179  -3.179  -1.180  -1.076  -1.036  -0.977
  3 B2    5 B1   11 A1    1 A2   12 A1   13 A1    6 B1   14 A1
 -0.849  -0.820  -0.714  -0.648  -0.647  -0.608  -0.578  -0.535
  7 B1   15 A1   16 A1    8 B1   17 A1    9 B1   18 A1    4 B2
 -0.518  -0.496  -0.440  -0.417  -0.354  -0.335
 10 B1   19 A1    5 B2   11 B1    2 A2    6 B2

 Beta MOs, Restricted
 -- Occupied --
-490.03  -65.16  -58.52  -58.52  -58.52  -11.30  -11.26  -11.26
  1 A1    2 A1    3 A1    1 B2    1 B1    4 A1    2 B1    5 A1
-11.254 -11.254 -11.251  -9.840  -7.454  -7.445  -7.445  -3.193
  6 A1    3 B1    7 A1    8 A1    9 A1    4 B1    2 B2   10 A1
 -3.189  -3.189  -3.179  -3.179  -1.180  -1.076  -1.036  -0.977
  3 B2    5 B1   11 A1    1 A2   12 A1   13 A1    6 B1   14 A1
 -0.849  -0.820  -0.714  -0.648  -0.647  -0.608  -0.578  -0.535
  7 B1   15 A1   16 A1    8 B1   17 A1    9 B1   18 A1    4 B2
 -0.518  -0.496  -0.440  -0.417  -0.354  -0.335
 10 B1   19 A1    5 B2   11 B1    2 A2    6 B2

          Ground-State Mulliken Net Atomic Charges

     Atom                 Charge (a.u.)
  ----------------------------------------
      1 H                     0.259552
      2 C                    -0.225772
      3 C                    -0.163465
      4 H                     0.227419
      5 C                    -0.415497
      6 H                     0.187829
      7 C                    -0.163465
      8 H                     0.227419
      9 C                    -0.225772
     10 H                     0.259552
     11 C                     0.385991
     12 Br                   -0.353791
  ----------------------------------------
  Sum of atomic charges =    -0.000000

                    Cartesian Multipole Moments
 -----------------------------------------------------------------
    Charge (ESU x 10^10)
                 0.0000
    Dipole Moment (Debye)
         X      -0.0000      Y      -0.0000      Z      -2.0243
       Tot       2.0243
    Quadrupole Moments (Debye-Ang)
        XX     -48.3716     XY      -0.0000     YY     -58.7598
        XZ      -0.0000     YZ       0.0000     ZZ     -49.5428

 Total job time:  13939.71s(wall), 103686.38s(cpu)
        *  Thank you very much for using Q-Chem.  Have a nice day.  *
