 Q-Chem 5.1, Q-Chem, Inc., Pleasanton, CA (2018)
 Q-Chem 5.1.1 for Intel X86 EM64T Linux

User input:
--------------------------------------------------------------
$comment
Optimized Br-Bz
TR-NEXAFS
basis = 6-311(2+,+)G** uncontracted on C
$end

$molecule
0 1
H      -2.1434404908     0.0000000000    -0.2235906397
C      -1.2132672529    -0.0000000000    -0.7727863601
C      -1.2050294832    -0.0000000000    -2.1658702173
H      -2.1443854307    -0.0000000000    -2.7014917948
C       0.0000000000    -0.0000000000    -2.8650776091
H       0.0000000000    -0.0000000000    -3.9458877158
C       1.2050294832    -0.0000000000    -2.1658702173
H       2.1443854307    -0.0000000000    -2.7014917948
C       1.2132672529    -0.0000000000    -0.7727863601
H       2.1434404908    -0.0000000000    -0.2235906397
C      -0.0000000000    -0.0000000000    -0.0899907575
Br     -0.0000000000     0.0000000000     1.7940097632
$end

$rem
   JOB_TYPE  =  SP
   BASIS  =  general
   METHOD  =  EOM-CCSD
   EE_STATES = [3,0,3,3]
   CVS_EE_STATES = [0,5,5,5]
   EOM_NGUESS_SINGLES = 10
   eom_preconv_singles = true
   n_frozen_core = 7
   cc_trans_prop = true
   use_libqints = 1   !use new int library (will be def in trunk)
   cc_memory = 100000
   !EOM_DAVIDSON_MAX_ITER 200
   EOM_DAVIDSON_MAXVECTORS = 1000
   eom_davidson_convergence = 4
   thresh = 14   !this already should be default, but just in case
   !scf_convergence = 12
   !cc_convergence = 12
   !basis_lin_dep_thresh = 8
$end

$basis
H    0
6-311(2+,+)G**
****
C    0
S    1    1.000000
   4.56324000E+03    1.96665000E-03
S    1    1.000000
   6.82024000E+02    1.52306000E-02
S    1    1.000000
   1.54973000E+02    7.61269000E-02
S    1    1.000000
   4.44553000E+01    2.60801000E-01
S    1    1.000000
   1.30290000E+01    6.16462000E-01
S    1    1.000000
   1.82773000E+00    2.21006000E-01
SP   3    1.000000
   2.09642000E+01    1.14660000E-01   4.02487000E-02
   4.80331000E+00    9.19999000E-01   2.37594000E-01
   1.45933000E+00   -3.03068000E-03   8.15854000E-01
SP   1    1.000000
   4.83456000E-01    1.00000000E+00   1.00000000E+00
SP   1    1.000000
   1.45585000E-01    1.00000000E+00   1.00000000E+00
SP   1    1.000000
   4.38000000E-02    1.00000000E+00   1.00000000E+00
SP   1    1.000000
   1.31927711E-02    1.00000000E+00   1.00000000E+00
D    1    1.000000
   6.26000000E-01    1.00000000E+00
****
Br   0
6-311(2+,+)G**
****
$end

$trans_prop
state_list
ee_singlets 1 1
ee_singlets 3 1
ee_singlets 4 1
cvs_ee_singlets 2 1
cvs_ee_singlets 2 2
cvs_ee_singlets 2 3
cvs_ee_singlets 2 4
cvs_ee_singlets 2 5
cvs_ee_singlets 3 1
cvs_ee_singlets 3 2
cvs_ee_singlets 3 3
cvs_ee_singlets 3 4
cvs_ee_singlets 3 5
cvs_ee_singlets 4 1
cvs_ee_singlets 4 2
cvs_ee_singlets 4 3
cvs_ee_singlets 4 4
cvs_ee_singlets 4 5
end_list
state_pair_list
1 4
1 5
1 6
1 7
1 8
1 9
1 10
1 11
1 12
1 13
1 14
1 15
1 16
1 17
1 18
2 4
2 5
2 6
2 7
2 8
2 9
2 10
2 11
2 12
2 13
2 14
2 15
2 16
2 17
2 18
3 4
3 5
3 6
3 7
3 8
3 9
3 10
3 11
3 12
3 13
3 14
3 15
3 16
3 17
3 18
end_pairs
calc default
$end

--------------------------------------------------------------

             Standard Nuclear Orientation (Angstroms)
    I     Atom           X                Y                Z
 ----------------------------------------------------------------
    1      H      -2.1434404908     0.0000000000    -0.2235906397
    2      C      -1.2132672529    -0.0000000000    -0.7727863601
    3      C      -1.2050294832    -0.0000000000    -2.1658702173
    4      H      -2.1443854307    -0.0000000000    -2.7014917948
    5      C       0.0000000000    -0.0000000000    -2.8650776091
    6      H       0.0000000000    -0.0000000000    -3.9458877158
    7      C       1.2050294832    -0.0000000000    -2.1658702173
    8      H       2.1443854307    -0.0000000000    -2.7014917948
    9      C       1.2132672529    -0.0000000000    -0.7727863601
   10      H       2.1434404908    -0.0000000000    -0.2235906397
   11      C       0.0000000000    -0.0000000000    -0.0899907575
   12      Br     -0.0000000000     0.0000000000     1.7940097632
 ----------------------------------------------------------------

   20   -2802.5402762024      9.43e-09  Convergence criterion met
 Total energy in the final basis set =    -2802.5402762024
 CCSD total energy           = -2803.88218278
 EOMEE transition 1/A1
 Total energy = -2803.54725227 a.u.  Excitation energy = 9.1139 eV.
 EOMEE transition 2/A1
 Total energy = -2803.53570756 a.u.  Excitation energy = 9.4281 eV.
 EOMEE transition 3/A1
 Total energy = -2803.52230026 a.u.  Excitation energy = 9.7929 eV.
 EOMEE transition 4/A1
 Total energy = -2803.50277432 a.u.  Excitation energy = 10.3242 eV.
 EOMEE transition 5/A1
 Total energy = -2803.49964430 a.u.  Excitation energy = 10.4094 eV.
 EOMEE transition 6/A1
 Total energy = -2803.49677019 a.u.  Excitation energy = 10.4876 eV.
 EOMEE transition 7/A1
 Total energy = -2803.49286801 a.u.  Excitation energy = 10.5938 eV.
 EOMEE transition 8/A1
 Total energy = -2803.48916923 a.u.  Excitation energy = 10.6944 eV.
 EOMEE transition 9/A1
 Total energy = -2803.47667469 a.u.  Excitation energy = 11.0344 eV.
 EOMEE transition 10/A1
 Total energy = -2803.47029784 a.u.  Excitation energy = 11.2080 eV.
 EOMEE transition 1/A1
 Total energy = -2803.65164599 a.u.  Excitation energy = 6.2732 eV.
 EOMEE transition 2/A1
 Total energy = -2803.62476876 a.u.  Excitation energy = 7.0046 eV.
 EOMEE transition 3/A1
 EOMEE transition 1/B1
 EOMEE transition 2/B1
 EOMEE transition 3/B1
 EOMEE transition 4/B1
 EOMEE transition 5/B1
 EOMEE transition 6/B1
 EOMEE transition 7/B1
 EOMEE transition 8/B1
 EOMEE transition 9/B1
 EOMEE transition 10/B1
 EOMEE transition 1/B1
 EOMEE transition 2/B1
 EOMEE transition 3/B1
 EOMEE transition 1/B2
 EOMEE transition 2/B2
 EOMEE transition 3/B2
 EOMEE transition 4/B2
 EOMEE transition 5/B2
 EOMEE transition 6/B2
 EOMEE transition 7/B2
 EOMEE transition 8/B2
 EOMEE transition 9/B2
 EOMEE transition 10/B2
 EOMEE transition 1/B2
 EOMEE transition 2/B2
 EOMEE transition 3/B2
 EOMEE transition 1/A2
 Total energy = -2793.27412515 a.u.  Excitation energy = 288.6599 eV.
 EOMEE transition 2/A2
 Total energy = -2793.19213756 a.u.  Excitation energy = 290.8909 eV.
 EOMEE transition 3/A2
 Total energy = -2793.16595959 a.u.  Excitation energy = 291.6033 eV.
 EOMEE transition 4/A2
 Total energy = -2793.04923504 a.u.  Excitation energy = 294.7795 eV.
 EOMEE transition 5/A2
 Total energy = -2792.96587010 a.u.  Excitation energy = 297.0480 eV.
 EOMEE transition 1/B1
 Total energy = -2793.21859658 a.u.  Excitation energy = 290.1709 eV.
 EOMEE transition 2/B1
 Total energy = -2793.19385543 a.u.  Excitation energy = 290.8442 eV.
 EOMEE transition 3/B1
 Total energy = -2793.17523056 a.u.  Excitation energy = 291.3510 eV.
 EOMEE transition 4/B1
 Total energy = -2793.16938487 a.u.  Excitation energy = 291.5101 eV.
 EOMEE transition 5/B1
 Total energy = -2793.15855020 a.u.  Excitation energy = 291.8049 eV.
 EOMEE transition 1/B2
 Total energy = -2793.33142600 a.u.  Excitation energy = 287.1007 eV.
 EOMEE transition 2/B2
 Total energy = -2793.21326198 a.u.  Excitation energy = 290.3161 eV.
 EOMEE transition 3/B2
 Total energy = -2793.18926271 a.u.  Excitation energy = 290.9692 eV.
 EOMEE transition 4/B2
 Total energy = -2793.17229905 a.u.  Excitation energy = 291.4308 eV.
 EOMEE transition 5/B2
 Total energy = -2793.16628255 a.u.  Excitation energy = 291.5945 eV.

             Orbital Energies (a.u.) and Symmetries
 --------------------------------------------------------------

 Alpha MOs, Restricted
 -- Occupied --
-490.03  -65.16  -58.52  -58.52  -58.52  -11.30  -11.26  -11.26
  1 A1    2 A1    3 A1    1 B2    1 B1    4 A1    2 B1    5 A1
-11.254 -11.254 -11.251  -9.840  -7.454  -7.445  -7.445  -3.193
  6 A1    3 B1    7 A1    8 A1    9 A1    4 B1    2 B2   10 A1
 -3.189  -3.189  -3.179  -3.179  -1.180  -1.076  -1.036  -0.977
  3 B2    5 B1   11 A1    1 A2   12 A1   13 A1    6 B1   14 A1
 -0.849  -0.820  -0.714  -0.648  -0.647  -0.608  -0.578  -0.535
  7 B1   15 A1   16 A1    8 B1   17 A1    9 B1   18 A1    4 B2
 -0.518  -0.496  -0.440  -0.417  -0.354  -0.335
 10 B1   19 A1    5 B2   11 B1    2 A2    6 B2

 Beta MOs, Restricted
 -- Occupied --
-490.03  -65.16  -58.52  -58.52  -58.52  -11.30  -11.26  -11.26
  1 A1    2 A1    3 A1    1 B2    1 B1    4 A1    2 B1    5 A1
-11.254 -11.254 -11.251  -9.840  -7.454  -7.445  -7.445  -3.193
  6 A1    3 B1    7 A1    8 A1    9 A1    4 B1    2 B2   10 A1
 -3.189  -3.189  -3.179  -3.179  -1.180  -1.076  -1.036  -0.977
  3 B2    5 B1   11 A1    1 A2   12 A1   13 A1    6 B1   14 A1
 -0.849  -0.820  -0.714  -0.648  -0.647  -0.608  -0.578  -0.535
  7 B1   15 A1   16 A1    8 B1   17 A1    9 B1   18 A1    4 B2
 -0.518  -0.496  -0.440  -0.417  -0.354  -0.335
 10 B1   19 A1    5 B2   11 B1    2 A2    6 B2

          Ground-State Mulliken Net Atomic Charges

     Atom                 Charge (a.u.)
  ----------------------------------------
      1 H                     0.259552
      2 C                    -0.225772
      3 C                    -0.163465
      4 H                     0.227419
      5 C                    -0.415497
      6 H                     0.187829
      7 C                    -0.163465
      8 H                     0.227419
      9 C                    -0.225772
     10 H                     0.259552
     11 C                     0.385991
     12 Br                   -0.353791
  ----------------------------------------
Archival summary:
1\1\n-62-29-8\SP\ProcedureUnspecified\BasisUnspecified\r165\malop\MonDec3102:30:552018MonDec3102:30:552018\0\\#,ProcedureUnspecified,BasisUnspecified,\\0,1\Br\C,1,1.884\C,2,1.3922,1,119.37\H,3,1.0802,2,120.072,1,-0,0\C,2,1.3922,1,119.37,3,-180,0\H,5,1.0802,2,120.072,1,-0,0\C,3,1.39311,2,119.031,1,180,0\H,7,1.08133,3,119.353,2,180,0\C,5,1.39311,2,119.031,1,-180,0\H,9,1.08133,5,119.353,2,-180,0\C,7,1.39319,3,120.463,2,0,0\H,11,1.08081,7,120.124,3,180,0\\HF=-2802.54028\\@

 Total job time:  18908.78s(wall), 159675.32s(cpu)
 Mon Dec 31 02:30:55 2018

        *************************************************************
        *                                                           *
        *  Thank you very much for using Q-Chem.  Have a nice day.  *
        *                                                           *
        *************************************************************

  Sum of atomic charges =     0.000000

                    Cartesian Multipole Moments
 -----------------------------------------------------------------
    Charge (ESU x 10^10)
                 0.0000
    Dipole Moment (Debye)
         X      -0.0000      Y       0.0000      Z      -2.0243
       Tot       2.0243
    Quadrupole Moments (Debye-Ang)
        XX     -48.3716     XY       0.0000     YY     -58.7598
        XZ       0.0000     YZ      -0.0000     ZZ     -49.5428
