 Q-Chem 5.1, Q-Chem, Inc., Pleasanton, CA (2018)
 Q-Chem 5.1.0 for Intel X86 EM64T Linux

User input:
--------------------------------------------------------------
$comment
Optimized Cl-Bz
TR-NEXAFS
6-311(2+,+)G** with uncontacted core on carbon only
$end

$molecule
0 1
 H        -2.1400320233    0.0000000000    0.5090177858
 C        -1.2120583232    0.0000000000   -0.0442490642
 C        -1.2042956497    0.0000000000   -1.4361358281
 H        -2.1437187877    0.0000000000   -1.9716770234
 C         0.0000000000    0.0000000000   -2.1351330277
 H         0.0000000000    0.0000000000   -3.2159870334
 C         1.2042956497    0.0000000000   -1.4361358281
 H         2.1437187877    0.0000000000   -1.9716770234
 C         1.2120583232    0.0000000000   -0.0442490642
 H         2.1400320233    0.0000000000    0.5090177858
 C         0.0000000000    0.0000000000    0.6386615242
 Cl        0.0000000000    0.0000000000    2.3695929760
$end

$rem
   JOB_TYPE  =  SP
   BASIS  =  general
   METHOD  =  EOM-CCSD
   EE_STATES = [3,0,3,3]
   CVS_EE_STATES = [5,5,5,5]
   eom_preconv_singles = true
   n_frozen_core = 7
   cc_trans_prop = true
   use_libqints = 1   !use new int library (will be def in trunk)
   cc_memory = 100000
   EOM_DAVIDSON_MAX_ITER 200
   EOM_DAVIDSON_MAXVECTORS = 1000
   eom_davidson_convergence = 4
!   state_analysis = true
!   molden_format  = true
!   nto_pairs      = 4
!   pop_mulliken   = true
$end

$basis
H    0
6-311(2+,+)G**
****
C    0
S    1    1.000000
   4.56324000E+03    1.96665000E-03
S    1    1.000000
   6.82024000E+02    1.52306000E-02
S    1    1.000000
   1.54973000E+02    7.61269000E-02
S    1    1.000000
   4.44553000E+01    2.60801000E-01
S    1    1.000000
   1.30290000E+01    6.16462000E-01
S    1    1.000000
   1.82773000E+00    2.21006000E-01
SP   3    1.000000
   2.09642000E+01    1.14660000E-01   4.02487000E-02
   4.80331000E+00    9.19999000E-01   2.37594000E-01
   1.45933000E+00   -3.03068000E-03   8.15854000E-01
SP   1    1.000000
   4.83456000E-01    1.00000000E+00   1.00000000E+00
SP   1    1.000000
   1.45585000E-01    1.00000000E+00   1.00000000E+00
SP   1    1.000000
   4.38000000E-02    1.00000000E+00   1.00000000E+00
SP   1    1.000000
   1.31927711E-02    1.00000000E+00   1.00000000E+00
D    1    1.000000
   6.26000000E-01    1.00000000E+00
****
Cl   0
6-311(2+,+)G**
****
$end

$trans_prop
state_list
ee_singlets 1 1
ee_singlets 3 1
ee_singlets 4 1
cvs_ee_singlets 1 1
cvs_ee_singlets 1 2
cvs_ee_singlets 1 3
cvs_ee_singlets 1 4
cvs_ee_singlets 1 5
cvs_ee_singlets 2 1
cvs_ee_singlets 2 2
cvs_ee_singlets 2 3
cvs_ee_singlets 2 4
cvs_ee_singlets 2 5
cvs_ee_singlets 3 1
cvs_ee_singlets 3 2
cvs_ee_singlets 3 3
cvs_ee_singlets 3 4
cvs_ee_singlets 3 5
cvs_ee_singlets 4 1
cvs_ee_singlets 4 2
cvs_ee_singlets 4 3
cvs_ee_singlets 4 4
cvs_ee_singlets 4 5
end_list
state_pair_list
1 4
1 5
1 6
1 7
1 8
1 9
1 10
1 11
1 12
1 13
1 14
1 15
1 16
1 17
1 18
1 19
1 20
1 21
1 22
1 23
2 4
2 5
2 6
2 7
2 8
2 9
2 10
2 11
2 12
2 13
2 14
2 15
2 16
2 17
2 18
2 19
2 20
2 21
2 22
2 23
3 4
3 5
3 6
3 7
3 8
3 9
3 10
3 11
3 12
3 13
3 14
3 15
3 16
3 17
3 18
3 19
3 20
3 21
3 22
3 23
end_pairs
calc default
$end

--------------------------------------------------------------

             Standard Nuclear Orientation (Angstroms)
    I     Atom           X                Y                Z
 ----------------------------------------------------------------
    1      H      -2.1400320233     0.0000000000     0.3814604176
    2      C      -1.2120583232     0.0000000000    -0.1718064324
    3      C      -1.2042956497     0.0000000000    -1.5636931963
    4      H      -2.1437187877     0.0000000000    -2.0992343916
    5      C      -0.0000000000     0.0000000000    -2.2626903959
    6      H      -0.0000000000     0.0000000000    -3.3435444016
    7      C       1.2042956497     0.0000000000    -1.5636931963
    8      H       2.1437187877     0.0000000000    -2.0992343916
    9      C       1.2120583232    -0.0000000000    -0.1718064324
   10      H       2.1400320233    -0.0000000000     0.3814604176
   11      C       0.0000000000    -0.0000000000     0.5111041560
   12      Cl      0.0000000000    -0.0000000000     2.2420356078
 ----------------------------------------------------------------

   19    -689.6809388769      4.85e-09  Convergence criterion met
 CCSD total energy           = -690.72382682
 EOMEE transition 1/A1
 Total energy = -690.38529681 a.u.  Excitation energy = 9.2119 eV.
 EOMEE transition 2/A1
 Total energy = -690.37531955 a.u.  Excitation energy = 9.4834 eV.
 EOMEE transition 3/A1
 Total energy = -690.35740925 a.u.  Excitation energy = 9.9707 eV.
 EOMEE transition 1/A1
 Total energy = -690.48929588 a.u.  Excitation energy = 6.3819 eV.
 EOMEE transition 2/A1
 Total energy = -690.46436989 a.u.  Excitation energy = 7.0602 eV.
 EOMEE transition 3/A1
 Total energy = -690.45632278 a.u.  Excitation energy = 7.2792 eV.
 EOMEE transition 1/B1
 Total energy = -690.38291983 a.u.  Excitation energy = 9.2766 eV.
 EOMEE transition 2/B1
 Total energy = -690.36623804 a.u.  Excitation energy = 9.7305 eV.
 EOMEE transition 3/B1
 Total energy = -690.35607739 a.u.  Excitation energy = 10.0070 eV.
 EOMEE transition 1/B1
 Total energy = -690.53652050 a.u.  Excitation energy = 5.0969 eV.
 EOMEE transition 2/B1
 Total energy = -690.46142524 a.u.  Excitation energy = 7.1403 eV.
 EOMEE transition 3/B1
 Total energy = -690.44264927 a.u.  Excitation energy = 7.6512 eV.
 EOMEE transition 1/B2
 Total energy = -690.40152446 a.u.  Excitation energy = 8.7703 eV.
 EOMEE transition 2/B2
 EOMEE transition 3/B2
 EOMEE transition 1/B2
 EOMEE transition 2/B2
 EOMEE transition 3/B2
 EOMEE transition 1/A1
 EOMEE transition 2/A1
 EOMEE transition 3/A1
 EOMEE transition 4/A1
 EOMEE transition 5/A1
 EOMEE transition 1/A2
 Total energy = -680.21445905 a.u.  Excitation energy = 285.9744 eV.
 EOMEE transition 2/A2
 Total energy = -680.21202355 a.u.  Excitation energy = 286.0407 eV.
 EOMEE transition 3/A2
 Total energy = -680.16153823 a.u.  Excitation energy = 287.4145 eV.
 EOMEE transition 4/A2
 Total energy = -680.15489867 a.u.  Excitation energy = 287.5952 eV.
 EOMEE transition 5/A2
 Total energy = -680.15374552 a.u.  Excitation energy = 287.6265 eV.
 EOMEE transition 1/B1
 Total energy = -680.13959666 a.u.  Excitation energy = 288.0116 eV.
 EOMEE transition 2/B1
 Total energy = -680.13454345 a.u.  Excitation energy = 288.1491 eV.
 EOMEE transition 3/B1
 Total energy = -680.10505979 a.u.  Excitation energy = 288.9513 eV.
 EOMEE transition 4/B1
 Total energy = -680.10126069 a.u.  Excitation energy = 289.0547 eV.
 EOMEE transition 5/B1
 Total energy = -680.10002115 a.u.  Excitation energy = 289.0885 eV.
 EOMEE transition 1/B2
 Total energy = -680.21428529 a.u.  Excitation energy = 285.9792 eV.
 EOMEE transition 2/B2
 Total energy = -680.21375091 a.u.  Excitation energy = 285.9937 eV.
 EOMEE transition 3/B2
 Total energy = -680.21185621 a.u.  Excitation energy = 286.0453 eV.
 EOMEE transition 4/B2
 Total energy = -680.16650039 a.u.  Excitation energy = 287.2795 eV.
 EOMEE transition 5/B2
 Total energy = -680.15478138 a.u.  Excitation energy = 287.5984 eV.

             Orbital Energies (a.u.) and Symmetries
 --------------------------------------------------------------

 Alpha MOs, Restricted
 -- Occupied --
-104.84  -11.31  -11.25  -11.25  -11.25  -11.25  -11.25  -10.57
  1 A1    2 A1    3 A1    1 B1    4 A1    2 B1    5 A1    6 A1
 -8.034  -8.031  -8.031  -1.196  -1.124  -1.036  -1.000  -0.850
  7 A1    3 B1    1 B2    8 A1    9 A1    4 B1   10 A1    5 B1
 -0.823  -0.715  -0.651  -0.651  -0.607  -0.593  -0.547  -0.520
 11 A1   12 A1    6 B1   13 A1    7 B1   14 A1    2 B2    8 B1
 -0.515  -0.471  -0.456  -0.354  -0.338
 15 A1    3 B2    9 B1    1 A2    4 B2

 Beta MOs, Restricted
 -- Occupied --
-104.84  -11.31  -11.25  -11.25  -11.25  -11.25  -11.25  -10.57
  1 A1    2 A1    3 A1    1 B1    4 A1    2 B1    5 A1    6 A1
 -8.034  -8.031  -8.031  -1.196  -1.124  -1.036  -1.000  -0.850
  7 A1    3 B1    1 B2    8 A1    9 A1    4 B1   10 A1    5 B1
 -0.823  -0.715  -0.651  -0.651  -0.607  -0.593  -0.547  -0.520
 11 A1   12 A1    6 B1   13 A1    7 B1   14 A1    2 B2    8 B1
 -0.515  -0.471  -0.456  -0.354  -0.338
 15 A1    3 B2    9 B1    1 A2    4 B2

          Ground-State Mulliken Net Atomic Charges

     Atom                 Charge (a.u.)
  ----------------------------------------
      1 H                     0.191423
      2 C                    -0.467624
      3 C                    -0.325326
      4 H                     0.223694
      5 C                    -0.337041
      6 H                     0.184041
      7 C                    -0.325326
      8 H                     0.223694
      9 C                    -0.467624
     10 H                     0.191423
     11 C                     0.389122
     12 Cl                    0.519542
  ----------------------------------------
  Sum of atomic charges =     0.000000

                    Cartesian Multipole Moments
 -----------------------------------------------------------------
    Charge (ESU x 10^10)
                -0.0000
    Dipole Moment (Debye)
         X       0.0000      Y      -0.0000      Z      -1.9696
       Tot       1.9696
    Quadrupole Moments (Debye-Ang)
        XX     -42.4455     XY       0.0000     YY     -52.7498
        XZ       0.0000     YZ       0.0000     ZZ     -46.7168

 Total job time:  7256.08s(wall), 54910.67s(cpu)
        *  Thank you very much for using Q-Chem.  Have a nice day.  *
