 Q-Chem 5.1, Q-Chem, Inc., Pleasanton, CA (2018)
 Q-Chem 5.1.1 for Intel X86 EM64T Linux

User input:
--------------------------------------------------------------
$molecule
0 1
  H    2.1527918    1.2429149    0.0000000
  C    1.2047582    0.6955675    0.0000000
  C    1.2047582   -0.6955675    0.0000000
  H    2.1527918   -1.2429149    0.0000000
  C   -0.0000000   -1.40        -0.0000000
  H   -0.0000000   -2.4858298   -0.0000000
  C   -1.2047582   -0.6955675   -0.0000000
  H   -2.1527918   -1.2429149   -0.0000000
  C   -1.2047582    0.6955675   -0.0000000
  H   -2.1527918    1.2429149   -0.0000000
  C    0.0000000    1.40         0.0000000
  H    0.0000000    2.4858298    0.0000000
$end

$rem
   JOB_TYPE  =  OPT
   BASIS  =  cc-pVTZ
   METHOD  =  EOM-CCSD
   IP_STATES = [0,0,0,1,0,0,0,0]
   CC_STATE_TO_OPT = [4,1]
   CC_MEMORY = 80000
! use SP code
  cc_single_prec=1
  eom_single_prec=1
  cc_sp_dm = 1
  cc_sp_t_conv = 4
  cc_sp_e_conv = 6
  cc_erase_dp_integrals = 1
$end

--------------------------------------------------------------

   10    -230.7781797356      3.82e-09  Convergence criterion met
 Total energy in the final basis set =     -230.7781797356
 CCSD total energy           = -231.75334138
        Solving for EOMIP-CCSD B3g transitions.
 EOMIP transition 1/B3g
 Total energy = -231.41112196 a.u.  Excitation energy = 9.3123 eV.
    9    -230.7728046317      3.48e-09  Convergence criterion met
 Total energy in the final basis set =     -230.7728046317
 CCSD total energy           = -231.74886142
        Solving for EOMIP-CCSD B3g transitions.
 EOMIP transition 1/B3g
 Total energy = -231.41656884 a.u.  Excitation energy = 9.0421 eV.
    7    -230.7729279246      5.85e-09  Convergence criterion met
 Total energy in the final basis set =     -230.7729279246
 CCSD total energy           = -231.74897386
        Solving for EOMIP-CCSD B3g transitions.
 EOMIP transition 1/B3g
 Total energy = -231.41677935 a.u.  Excitation energy = 9.0395 eV.

             Standard Nuclear Orientation (Angstroms)
    I     Atom           X                Y                Z
 ----------------------------------------------------------------
    1      H       1.2392908131    -2.1390691708     0.0000000000
    2      C       0.7225974533    -1.1894682957     0.0000000000
    3      C      -0.7225974533    -1.1894682957     0.0000000000
    4      H      -1.2392908131    -2.1390691708     0.0000000000
    5      C      -1.4341864916     0.0000000000     0.0000000000
    6      H      -2.5128824541     0.0000000000     0.0000000000
    7      C      -0.7225974533     1.1894682957     0.0000000000
    8      H      -1.2392908131     2.1390691708     0.0000000000
    9      C       0.7225974533     1.1894682957     0.0000000000
   10      H       1.2392908131     2.1390691708     0.0000000000
   11      C       1.4341864916     0.0000000000     0.0000000000
   12      H       2.5128824541     0.0000000000     0.0000000000
 ----------------------------------------------------------------

    7    -230.7728175542      3.01e-09  Convergence criterion met
 Total energy in the final basis set =     -230.7728175542
 CCSD total energy           = -231.74886443
        Solving for EOMIP-CCSD B3g transitions.
 EOMIP transition 1/B3g
 Total energy = -231.41678780 a.u.  Excitation energy = 9.0363 eV.
 Final energy is   -231.41678780041744
 **  OPTIMIZATION CONVERGED  **

             Orbital Energies (a.u.) and Symmetries
 --------------------------------------------------------------

 Alpha MOs, Unrestricted
 -- Occupied --
-11.239 -11.233 -11.238 -11.239 -11.238 -11.233  -1.142  -0.816
  1 Ag    2 Ag    1 B1g   1 B2u   1 B3u   2 B3u   3 Ag    4 Ag
 -0.705  -0.489  -0.826  -0.498  -0.344  -0.322  -0.496  -0.997
  5 Ag    6 Ag    2 B1g   3 B1g   1 B2g   1 B3g   1 B1u   2 B2u
 -0.613  -0.572  -1.022  -0.647  -0.598
  3 B2u   4 B2u   3 B3u   4 B3u   5 B3u

 Beta MOs, Unrestricted
 -- Occupied --
-11.239 -11.233 -11.238 -11.239 -11.238 -11.233  -1.142  -0.816
  1 Ag    2 Ag    1 B1g   1 B2u   1 B3u   2 B3u   3 Ag    4 Ag
 -0.705  -0.489  -0.826  -0.498  -0.344  -0.322  -0.496  -0.997
  5 Ag    6 Ag    2 B1g   3 B1g   1 B2g   1 B3g   1 B1u   2 B2u
 -0.613  -0.572  -1.022  -0.647  -0.598
  3 B2u   4 B2u   3 B3u   4 B3u   5 B3u

          Ground-State Mulliken Net Atomic Charges

     Atom                 Charge (a.u.)    Spin (a.u.)
  --------------------------------------------------------
      1 H                     0.227245       0.014027
      2 C                    -0.027533      -0.322871
      3 C                    -0.027533      -0.322871
      4 H                     0.227245       0.014027
      5 C                    -0.121203       0.121839
      6 H                     0.221779      -0.004152
      7 C                    -0.027533      -0.322871
      8 H                     0.227245       0.014027
      9 C                    -0.027533      -0.322871
     10 H                     0.227245       0.014027
     11 C                    -0.121203       0.121839
     12 H                     0.221779      -0.004152
  --------------------------------------------------------
  Sum of atomic charges =     1.000000

                    Cartesian Multipole Moments
 -----------------------------------------------------------------
    Charge (ESU x 10^10)
                 4.8032
    Dipole Moment (Debye)
         X       0.0000      Y       0.0000      Z      -0.0000
       Tot       0.0000
    Quadrupole Moments (Debye-Ang)
        XX     -21.3194     XY       0.0000     YY     -18.8630
        XZ       0.0000     YZ      -0.0000     ZZ     -35.4431

 Total job time:  71406.68s(wall), 483821.11s(cpu)
        *  Thank you very much for using Q-Chem.  Have a nice day.  *
