 Q-Chem 5.1, Q-Chem, Inc., Pleasanton, CA (2018)
 Q-Chem 5.1.0 for Mac (Intel) OS X

User input:
--------------------------------------------------------------
$molecule
0 1
  H    2.1527918    1.2429149    0.0000000
  C    1.2047582    0.6955675    0.0000000
  C    1.2047582   -0.6955675    0.0000000
  H    2.1527918   -1.2429149    0.0000000
  C   -0.0000000   -1.40        -0.0000000
  H   -0.0000000   -2.4858298   -0.0000000
  C   -1.2047582   -0.6955675   -0.0000000
  H   -2.1527918   -1.2429149   -0.0000000
  C   -1.2047582    0.6955675   -0.0000000
  H   -2.1527918    1.2429149   -0.0000000
  C    0.0000000    1.40         0.0000000
  H    0.0000000    2.4858298    0.0000000
$end

$rem
   BASIS  =  6-31G
   JOB_TYPE  =  SP
   METHOD  =  EOM-CCSD
   SCF_CONVERGENCE  =  8
   IP_STATES = [1,1,1,1,1,1,1,1]
$end

--------------------------------------------------------------

             Standard Nuclear Orientation (Angstroms)
    I     Atom           X                Y                Z
 ----------------------------------------------------------------
    1      H       1.2429149000    -2.1527918000    -0.0000000000
    2      C       0.6955675000    -1.2047582000    -0.0000000000
    3      C      -0.6955675000    -1.2047582000     0.0000000000
    4      H      -1.2429149000    -2.1527918000     0.0000000000
    5      C      -1.4000000000    -0.0000000000     0.0000000000
    6      H      -2.4858298000    -0.0000000000     0.0000000000
    7      C      -0.6955675000     1.2047582000     0.0000000000
    8      H      -1.2429149000     2.1527918000     0.0000000000
    9      C       0.6955675000     1.2047582000    -0.0000000000
   10      H       1.2429149000     2.1527918000    -0.0000000000
   11      C       1.4000000000     0.0000000000    -0.0000000000
   12      H       2.4858298000     0.0000000000    -0.0000000000
 ----------------------------------------------------------------

   10    -230.6226897859      6.96e-09  Convergence criterion met
 CCSD total energy           = -231.18252965
        Solving for EOMIP-CCSD Ag transitions.
 EOMIP transition 1/Ag
 Total energy = -230.75304287 a.u.  Excitation energy = 11.6869 eV.
        Solving for EOMIP-CCSD B1g transitions.
 EOMIP transition 1/B1g
 Total energy = -230.75754556 a.u.  Excitation energy = 11.5644 eV.
        Solving for EOMIP-CCSD B2g transitions.
 EOMIP transition 1/B2g
 Total energy = -230.85854340 a.u.  Excitation energy = 8.8161 eV.
        Solving for EOMIP-CCSD B3g transitions.
 EOMIP transition 1/B3g
 Total energy = -230.85822545 a.u.  Excitation energy = 8.8248 eV.
        Solving for EOMIP-CCSD Au transitions.
 EOMIP transition 1/Au
 Total energy = -230.58413856 a.u.  Excitation energy = 16.2830 eV.
        Solving for EOMIP-CCSD B1u transitions.
 EOMIP transition 1/B1u
 Total energy = -230.73524565 a.u.  Excitation energy = 12.1712 eV.
        Solving for EOMIP-CCSD B2u transitions.
 EOMIP transition 1/B2u
 Total energy = -230.66675998 a.u.  Excitation energy = 14.0348 eV.
        Solving for EOMIP-CCSD B3u transitions.
 EOMIP transition 1/B3u
 Total energy = -230.66460610 a.u.  Excitation energy = 14.0934 eV.

             Orbital Energies (a.u.) and Symmetries
 --------------------------------------------------------------

 Alpha MOs, Restricted
 -- Occupied --
-11.240 -11.239 -11.239 -11.238 -11.238 -11.237  -1.152  -1.014
  1 Ag    1 B2u   1 B3u   1 B1g   2 Ag    2 B3u   3 Ag    3 B3u
 -1.014  -0.821  -0.819  -0.707  -0.634  -0.617  -0.585  -0.583
  2 B2u   4 Ag    2 B1g   5 Ag    4 B3u   3 B2u   5 B3u   4 B2u
 -0.500  -0.489  -0.483  -0.334  -0.333
  1 B1u   6 Ag    3 B1g   1 B3g   1 B2g

 Beta MOs, Restricted
 -- Occupied --
-11.240 -11.239 -11.239 -11.238 -11.238 -11.237  -1.152  -1.014
  1 Ag    1 B2u   1 B3u   1 B1g   2 Ag    2 B3u   3 Ag    3 B3u
 -1.014  -0.821  -0.819  -0.707  -0.634  -0.617  -0.585  -0.583
  2 B2u   4 Ag    2 B1g   5 Ag    4 B3u   3 B2u   5 B3u   4 B2u
 -0.500  -0.489  -0.483  -0.334  -0.333
  1 B1u   6 Ag    3 B1g   1 B3g   1 B2g

          Ground-State Mulliken Net Atomic Charges

     Atom                 Charge (a.u.)
  ----------------------------------------
      1 H                     0.200372
      2 C                    -0.201842
      3 C                    -0.201842
      4 H                     0.200372
      5 C                    -0.199132
      6 H                     0.202071
      7 C                    -0.201842
      8 H                     0.200372
      9 C                    -0.201842
     10 H                     0.200372
     11 C                    -0.199132
     12 H                     0.202071
  ----------------------------------------
  Sum of atomic charges =     0.000000

                    Cartesian Multipole Moments
 -----------------------------------------------------------------
    Charge (ESU x 10^10)
                 0.0000
    Dipole Moment (Debye)
         X       0.0000      Y       0.0000      Z      -0.0000
       Tot       0.0000
    Quadrupole Moments (Debye-Ang)
        XX     -31.6553     XY       0.0000     YY     -31.8502
        XZ      -0.0000     YZ      -0.0000     ZZ     -40.4055

 Total job time:  66.78s(wall), 64.42s(cpu)
        *  Thank you very much for using Q-Chem.  Have a nice day.  *
