 Q-Chem 5.1, Q-Chem, Inc., Pleasanton, CA (2018)
 Q-Chem 5.1.1 for Intel X86 EM64T Linux

User input:
--------------------------------------------------------------
$molecule
0 1
  H    2.1527918    1.2429149    0.0000000
  C    1.2047582    0.6955675    0.0000000
  C    1.2047582   -0.6955675    0.0000000
  H    2.1527918   -1.2429149    0.0000000
  C   -0.0000000   -1.40        -0.0000000
  H   -0.0000000   -2.4858298   -0.0000000
  C   -1.2047582   -0.6955675   -0.0000000
  H   -2.1527918   -1.2429149   -0.0000000
  C   -1.2047582    0.6955675   -0.0000000
  H   -2.1527918    1.2429149   -0.0000000
  C    0.0000000    1.40         0.0000000
  H    0.0000000    2.4858298    0.0000000
$end

$rem
   JOB_TYPE  =  OPT
   BASIS  =  cc-pVTZ
   METHOD  =  EOM-CCSD
   IP_STATES = [0,0,1,0,0,0,0,0]
   CC_STATE_TO_OPT = [3,1]
   CC_MEMORY = 80000
! use SP code
  cc_single_prec=1
  eom_single_prec=1
  cc_sp_dm = 1
  cc_sp_t_conv = 4
  cc_sp_e_conv = 6
  cc_erase_dp_integrals = 1
$end

--------------------------------------------------------------

   10    -230.7781797354      3.82e-09  Convergence criterion met
 Total energy in the final basis set =     -230.7781797354
 CCSD total energy           = -231.75334150
        Solving for EOMIP-CCSD B2g transitions.
 EOMIP transition 1/B2g
 Total energy = -231.41142325 a.u.  Excitation energy = 9.3041 eV.
    9    -230.7723737188      3.70e-09  Convergence criterion met
 Total energy in the final basis set =     -230.7723737188
 CCSD total energy           = -231.74846858
        Solving for EOMIP-CCSD B2g transitions.
 EOMIP transition 1/B2g
 Total energy = -231.41653918 a.u.  Excitation energy = 9.0323 eV.
    7    -230.7729949695      4.85e-09  Convergence criterion met
 Total energy in the final basis set =     -230.7729949695
 CCSD total energy           = -231.74904717
        Solving for EOMIP-CCSD B2g transitions.
 EOMIP transition 1/B2g
 Total energy = -231.41671321 a.u.  Excitation energy = 9.0433 eV.

             Standard Nuclear Orientation (Angstroms)
    I     Atom           X                Y                Z
 ----------------------------------------------------------------
    1      H       1.2465484969    -2.1657767242     0.0000000000
    2      C       0.6841297998    -1.2444136234     0.0000000000
    3      C      -0.6841297998    -1.2444136234     0.0000000000
    4      H      -1.2465484969    -2.1657767242     0.0000000000
    5      C      -1.3773586499     0.0000000000     0.0000000000
    6      H      -2.4592307612     0.0000000000     0.0000000000
    7      C      -0.6841297998     1.2444136234     0.0000000000
    8      H      -1.2465484969     2.1657767242     0.0000000000
    9      C       0.6841297998     1.2444136234     0.0000000000
   10      H       1.2465484969     2.1657767242     0.0000000000
   11      C       1.3773586499     0.0000000000     0.0000000000
   12      H       2.4592307612     0.0000000000     0.0000000000
 ----------------------------------------------------------------

    7    -230.7729751634      4.05e-09  Convergence criterion met
 Total energy in the final basis set =     -230.7729751634
 CCSD total energy           = -231.74900241
        Solving for EOMIP-CCSD B2g transitions.
 EOMIP transition 1/B2g
 Total energy = -231.41672576 a.u.  Excitation energy = 9.0417 eV.
 Final energy is   -231.41672575616309
 **  OPTIMIZATION CONVERGED  **

             Orbital Energies (a.u.) and Symmetries
 --------------------------------------------------------------

 Alpha MOs, Unrestricted
 -- Occupied --
-11.240 -11.235 -11.234 -11.236 -11.240 -11.234  -1.142  -0.826
  1 Ag    2 Ag    1 B1g   1 B2u   1 B3u   2 B3u   3 Ag    4 Ag
 -0.705  -0.498  -0.816  -0.489  -0.322  -0.344  -0.496  -1.022
  5 Ag    6 Ag    2 B1g   3 B1g   1 B2g   1 B3g   1 B1u   2 B2u
 -0.613  -0.597  -0.998  -0.647  -0.573
  3 B2u   4 B2u   3 B3u   4 B3u   5 B3u

 Beta MOs, Unrestricted
 -- Occupied --
-11.240 -11.235 -11.234 -11.236 -11.240 -11.234  -1.142  -0.826
  1 Ag    2 Ag    1 B1g   1 B2u   1 B3u   2 B3u   3 Ag    4 Ag
 -0.705  -0.498  -0.816  -0.489  -0.322  -0.344  -0.496  -1.022
  5 Ag    6 Ag    2 B1g   3 B1g   1 B2g   1 B3g   1 B1u   2 B2u
 -0.613  -0.597  -0.998  -0.647  -0.573
  3 B2u   4 B2u   3 B3u   4 B3u   5 B3u

          Ground-State Mulliken Net Atomic Charges

     Atom                 Charge (a.u.)    Spin (a.u.)
  --------------------------------------------------------
      1 H                     0.223199       0.001624
      2 C                    -0.089860      -0.019370
      3 C                    -0.089860      -0.019370
      4 H                     0.223199       0.001624
      5 C                     0.003453      -0.485130
      6 H                     0.229868       0.020623
      7 C                    -0.089860      -0.019370
      8 H                     0.223199       0.001624
      9 C                    -0.089860      -0.019370
     10 H                     0.223199       0.001624
     11 C                     0.003453      -0.485130
     12 H                     0.229868       0.020623
  --------------------------------------------------------
  Sum of atomic charges =     1.000000

                    Cartesian Multipole Moments
 -----------------------------------------------------------------
    Charge (ESU x 10^10)
                 4.8032
    Dipole Moment (Debye)
         X      -0.0000      Y      -0.0000      Z      -0.0000
       Tot       0.0000
    Quadrupole Moments (Debye-Ang)
        XX     -18.8101     XY       0.0000     YY     -21.3756
        XZ      -0.0000     YZ       0.0000     ZZ     -35.4426

 Total job time:  72383.14s(wall), 491039.65s(cpu)
        *  Thank you very much for using Q-Chem.  Have a nice day.  *
